 argument  1 = nwchem/input_4_13_at_worker_5.nw



============================== echo of input deck ==============================
echo
memory 1000 mb
geometry noautosym noautoz
O -0.82054445 0.61636011 -1.6312343
H -0.26682713 1.17302621 -1.05309865
H -0.36885969 -0.24447946 -1.58195952
O -0.64071556 -0.48854013 1.6410419
H -0.19915392 0.37247798 1.5285638
H -1.54433112 -0.32408724 1.298356
O 2.81159896 -0.10395953 -0.18689424
H 3.46294039 -0.4517338 0.43482057
H 2.1584952 -0.82915775 -0.30211113
O -2.88801599 -0.0663369 0.05761427
H -2.29024563 0.26724676 -0.65069518
H -3.66545029 0.50362404 0.03495814
end
basis spherical
 * library cc-pvdz
end
task scf gradient
================================================================================


                                         
                                         


             Northwest Computational Chemistry Package (NWChem) 7.0.2
             --------------------------------------------------------


                    Environmental Molecular Sciences Laboratory
                       Pacific Northwest National Laboratory
                                Richland, WA 99352

                              Copyright (c) 1994-2020
                       Pacific Northwest National Laboratory
                            Battelle Memorial Institute

             NWChem is an open-source computational chemistry package
                        distributed under the terms of the
                      Educational Community License (ECL) 2.0
             A copy of the license is included with this distribution
                              in the LICENSE.TXT file

                                  ACKNOWLEDGMENT
                                  --------------

            This software and its documentation were developed at the
            EMSL at Pacific Northwest National Laboratory, a multiprogram
            national laboratory, operated for the U.S. Department of Energy
            by Battelle under Contract Number DE-AC05-76RL01830. Support
            for this work was provided by the Department of Energy Office
            of Biological and Environmental Research, Office of Basic
            Energy Sciences, and the Office of Advanced Scientific Computing.


           Job information
           ---------------

    hostname        = pop-os
    program         = nwchem
    date            = Thu Jul  8 18:22:44 2021

    compiled        = Wed_Jan_06_19:48:08_2021
    source          = /build/nwchem-ksKH2r/nwchem-7.0.2
    nwchem branch   = 7.0.2
    nwchem revision = N/A
    ga revision     = 5.7.1
    use scalapack   = T
    input           = nwchem/input_4_13_at_worker_5.nw
    prefix          = input_4_13_at_worker_5.
    data base       = ./input_4_13_at_worker_5.db
    status          = startup
    nproc           =        1
    time left       =     -1s



           Memory information
           ------------------

    heap     =   32767998 doubles =    250.0 Mbytes
    stack    =   32767995 doubles =    250.0 Mbytes
    global   =   65536000 doubles =    500.0 Mbytes (distinct from heap & stack)
    total    =  131071993 doubles =   1000.0 Mbytes
    verify   = yes
    hardfail = no 


           Directory information
           ---------------------

  0 permanent = .
  0 scratch   = .




                                NWChem Input Module
                                -------------------



 Scaling coordinates for geometry "geometry" by  1.889725989
 (inverse scale =  0.529177249)



                             Geometry "geometry" -> ""
                             -------------------------

 Output coordinates in angstroms (scale by  1.889725989 to convert to a.u.)

  No.       Tag          Charge          X              Y              Z
 ---- ---------------- ---------- -------------- -------------- --------------
    1 O                    8.0000    -0.44517324     0.61318248    -1.60006068
    2 H                    1.0000     0.10854408     1.16984858    -1.02192503
    3 H                    1.0000     0.00651152    -0.24765709    -1.55078590
    4 O                    8.0000    -0.26534435    -0.49171776     1.67221552
    5 H                    1.0000     0.17621729     0.36930035     1.55973742
    6 H                    1.0000    -1.16895991    -0.32726487     1.32952962
    7 O                    8.0000     3.18697017    -0.10713716    -0.15572062
    8 H                    1.0000     3.83831160    -0.45491143     0.46599419
    9 H                    1.0000     2.53386641    -0.83233538    -0.27093751
   10 O                    8.0000    -2.51264478    -0.06951453     0.08878789
   11 H                    1.0000    -1.91487442     0.26406913    -0.61952156
   12 H                    1.0000    -3.29007908     0.50044641     0.06613176

      Atomic Mass 
      ----------- 

      O                 15.994910
      H                  1.007825


 Effective nuclear repulsion energy (a.u.)     126.9870452570

            Nuclear Dipole moment (a.u.) 
            ----------------------------
        X                 Y               Z
 ---------------- ---------------- ----------------
    -0.0000000000    -0.0000000000     0.0000000000


            XYZ format geometry
            -------------------
    12
 geometry
 O                    -0.44517324     0.61318248    -1.60006068
 H                     0.10854408     1.16984858    -1.02192503
 H                     0.00651152    -0.24765709    -1.55078590
 O                    -0.26534435    -0.49171776     1.67221552
 H                     0.17621729     0.36930035     1.55973742
 H                    -1.16895991    -0.32726487     1.32952962
 O                     3.18697017    -0.10713716    -0.15572062
 H                     3.83831160    -0.45491143     0.46599419
 H                     2.53386641    -0.83233538    -0.27093751
 O                    -2.51264478    -0.06951453     0.08878789
 H                    -1.91487442     0.26406913    -0.61952156
 H                    -3.29007908     0.50044641     0.06613176

 ==============================================================================
                                internuclear distances
 ------------------------------------------------------------------------------
       center one      |      center two      | atomic units |  angstroms
 ------------------------------------------------------------------------------
    2 H                |   1 O                |     1.84258  |     0.97505
    3 H                |   1 O                |     1.83944  |     0.97339
    5 H                |   4 O                |     1.84089  |     0.97416
    6 H                |   4 O                |     1.85251  |     0.98031
    8 H                |   7 O                |     1.82407  |     0.96526
    9 H                |   7 O                |     1.85707  |     0.98272
   11 H                |  10 O                |     1.86146  |     0.98504
   12 H                |  10 O                |     1.82216  |     0.96425
 ------------------------------------------------------------------------------
                         number of included internuclear distances:          8
 ==============================================================================



 ==============================================================================
                                 internuclear angles
 ------------------------------------------------------------------------------
        center 1       |       center 2       |       center 3       |  degrees
 ------------------------------------------------------------------------------
    2 H                |   1 O                |   3 H                |   102.20
    5 H                |   4 O                |   6 H                |   103.25
    8 H                |   7 O                |   9 H                |   104.96
   11 H                |  10 O                |  12 H                |   105.80
 ------------------------------------------------------------------------------
                            number of included internuclear angles:          4
 ==============================================================================





 Summary of "ao basis" -> "" (spherical)
 ------------------------------------------------------------------------------
       Tag                 Description            Shells   Functions and Types
 ---------------- ------------------------------  ------  ---------------------
 *                          cc-pvdz                   on all atoms 


                      Basis "ao basis" -> "ao basis" (spherical)
                      -----
  O (Oxygen)
  ----------
            Exponent  Coefficients 
       -------------- ---------------------------------------------------------
  1 S  1.17200000E+04  0.000710
  1 S  1.75900000E+03  0.005470
  1 S  4.00800000E+02  0.027837
  1 S  1.13700000E+02  0.104800
  1 S  3.70300000E+01  0.283062
  1 S  1.32700000E+01  0.448719
  1 S  5.02500000E+00  0.270952
  1 S  1.01300000E+00  0.015458

  2 S  1.17200000E+04 -0.000160
  2 S  1.75900000E+03 -0.001263
  2 S  4.00800000E+02 -0.006267
  2 S  1.13700000E+02 -0.025716
  2 S  3.70300000E+01 -0.070924
  2 S  1.32700000E+01 -0.165411
  2 S  5.02500000E+00 -0.116955
  2 S  1.01300000E+00  0.557368

  3 S  3.02300000E-01  1.000000

  4 P  1.77000000E+01  0.043018
  4 P  3.85400000E+00  0.228913
  4 P  1.04600000E+00  0.508728

  5 P  2.75300000E-01  1.000000

  6 D  1.18500000E+00  1.000000

  H (Hydrogen)
  ------------
            Exponent  Coefficients 
       -------------- ---------------------------------------------------------
  1 S  1.30100000E+01  0.019685
  1 S  1.96200000E+00  0.137977
  1 S  4.44600000E-01  0.478148

  2 S  1.22000000E-01  1.000000

  3 P  7.27000000E-01  1.000000



 Summary of "ao basis" -> "ao basis" (spherical)
 ------------------------------------------------------------------------------
       Tag                 Description            Shells   Functions and Types
 ---------------- ------------------------------  ------  ---------------------
 O                          cc-pvdz                  6       14   3s2p1d
 H                          cc-pvdz                  3        5   2s1p


                                 NWChem SCF Module
                                 -----------------



  ao basis        = "ao basis"
  functions       =    96
  atoms           =    12
  closed shells   =    20
  open shells     =     0
  charge          =   0.00
  wavefunction    = RHF 
  input vectors   = atomic
  output vectors  = ./input_4_13_at_worker_5.movecs
  use symmetry    = F
  symmetry adapt  = F


 Summary of "ao basis" -> "ao basis" (spherical)
 ------------------------------------------------------------------------------
       Tag                 Description            Shells   Functions and Types
 ---------------- ------------------------------  ------  ---------------------
 O                          cc-pvdz                  6       14   3s2p1d
 H                          cc-pvdz                  3        5   2s1p



 Forming initial guess at       0.1s


      Superposition of Atomic Density Guess
      -------------------------------------

 Sum of atomic energies:        -303.04891642

      Non-variational initial energy
      ------------------------------

 Total energy =    -303.701305
 1-e energy   =    -667.750433
 2-e energy   =     237.062083
 HOMO         =      -0.460646
 LUMO         =       0.033059


 Starting SCF solution at       0.5s



 ----------------------------------------------
         Quadratically convergent ROHF

 Convergence threshold     :          1.000E-04
 Maximum no. of iterations :           30
 Final Fock-matrix accuracy:          1.000E-07
 ----------------------------------------------


 Integral file          = ./input_4_13_at_worker_5.aoints.0
 Record size in doubles =  65536        No. of integs per rec  =  43688
 Max. records in memory =    339        Max. records in file   = 400154
 No. of bits per label  =      8        No. of bits per value  =     64


 #quartets = 4.196D+05 #integrals = 4.598D+06 #direct =  0.0% #cached =100.0%


              iter       energy          gnorm     gmax       time
             ----- ------------------- --------- --------- --------
                 1     -303.9987690749  1.56D+00  2.82D-01      1.5
                 2     -304.1140442442  3.39D-01  7.70D-02      1.6
                 3     -304.1232031785  2.87D-02  5.90D-03      1.8
                 4     -304.1232749674  5.48D-04  8.25D-05      2.1
                 5     -304.1232749900  2.62D-06  5.74D-07      2.4


       Final RHF  results 
       ------------------ 

         Total SCF energy =   -304.123274989974
      One-electron energy =   -672.826125781663
      Two-electron energy =    241.715805534649
 Nuclear repulsion energy =    126.987045257040

        Time for solution =      1.9s


             Final eigenvalues
             -----------------

              1      
    1  -20.5979
    2  -20.5647
    3  -20.5521
    4  -20.5267
    5   -1.3757
    6   -1.3393
    7   -1.3336
    8   -1.3028
    9   -0.7277
   10   -0.7098
   11   -0.7030
   12   -0.6695
   13   -0.6150
   14   -0.5749
   15   -0.5741
   16   -0.5472
   17   -0.5218
   18   -0.5032
   19   -0.4903
   20   -0.4681
   21    0.1289
   22    0.1903
   23    0.2097
   24    0.2145
   25    0.2599
   26    0.2943
   27    0.3687
   28    0.3894
   29    0.7287
   30    0.7483

                       ROHF Final Molecular Orbital Analysis
                       -------------------------------------

 Vector    5  Occ=2.000000D+00  E=-1.375658D+00
              MO Center= -3.9D-01,  5.5D-01, -1.5D+00, r^2= 7.5D-01
   Bfn.  Coefficient  Atom+Function         Bfn.  Coefficient  Atom+Function  
  ----- ------------  ---------------      ----- ------------  ---------------
     2      0.437154   1 O  s                 3      0.384756   1 O  s         
    15      0.180315   2 H  s                20      0.181196   3 H  s         

 Vector    6  Occ=2.000000D+00  E=-1.339333D+00
              MO Center=  3.2D+00, -2.5D-01, -8.3D-02, r^2= 5.1D-01
   Bfn.  Coefficient  Atom+Function         Bfn.  Coefficient  Atom+Function  
  ----- ------------  ---------------      ----- ------------  ---------------
    50      0.444842   7 O  s                51      0.388925   7 O  s         
    63      0.190501   8 H  s                68      0.181840   9 H  s         

 Vector    7  Occ=2.000000D+00  E=-1.333558D+00
              MO Center= -2.3D+00,  5.2D-02,  2.8D-02, r^2= 1.1D+00
   Bfn.  Coefficient  Atom+Function         Bfn.  Coefficient  Atom+Function  
  ----- ------------  ---------------      ----- ------------  ---------------
    74      0.424351  10 O  s                75      0.380157  10 O  s         
    92      0.180313  12 H  s                87      0.163802  11 H  s         

 Vector    8  Occ=2.000000D+00  E=-1.302773D+00
              MO Center= -4.3D-01, -3.3D-01,  1.5D+00, r^2= 9.0D-01
   Bfn.  Coefficient  Atom+Function         Bfn.  Coefficient  Atom+Function  
  ----- ------------  ---------------      ----- ------------  ---------------
    26      0.432349   4 O  s                27      0.385010   4 O  s         
    39      0.184888   5 H  s                44      0.171838   6 H  s         

 Vector    9  Occ=2.000000D+00  E=-7.276999D-01
              MO Center= -3.0D-01,  5.5D-01, -1.5D+00, r^2= 9.0D-01
   Bfn.  Coefficient  Atom+Function         Bfn.  Coefficient  Atom+Function  
  ----- ------------  ---------------      ----- ------------  ---------------
     5      0.460024   1 O  py               15      0.318919   2 H  s         
    20     -0.309623   3 H  s                 8      0.222562   1 O  py        
     6      0.165142   1 O  pz        

 Vector   10  Occ=2.000000D+00  E=-7.097634D-01
              MO Center= -2.2D+00,  1.1D-01, -9.7D-02, r^2= 1.9D+00
   Bfn.  Coefficient  Atom+Function         Bfn.  Coefficient  Atom+Function  
  ----- ------------  ---------------      ----- ------------  ---------------
    76      0.409520  10 O  px               92     -0.305022  12 H  s         
    87      0.280712  11 H  s                79      0.195522  10 O  px        
    78     -0.175233  10 O  pz        

 Vector   11  Occ=2.000000D+00  E=-7.030223D-01
              MO Center=  3.1D+00, -3.1D-01, -6.4D-02, r^2= 1.1D+00
   Bfn.  Coefficient  Atom+Function         Bfn.  Coefficient  Atom+Function  
  ----- ------------  ---------------      ----- ------------  ---------------
    52      0.410019   7 O  px               63      0.325288   8 H  s         
    68     -0.316689   9 H  s                54      0.237733   7 O  pz        
    55      0.192964   7 O  px        

 Vector   12  Occ=2.000000D+00  E=-6.694990D-01
              MO Center= -6.0D-01, -2.5D-01,  1.3D+00, r^2= 1.7D+00
   Bfn.  Coefficient  Atom+Function         Bfn.  Coefficient  Atom+Function  
  ----- ------------  ---------------      ----- ------------  ---------------
    28      0.402244   4 O  px               44     -0.296753   6 H  s         
    39      0.294301   5 H  s                31      0.191066   4 O  px        
    29      0.189873   4 O  py               78     -0.167110  10 O  pz        

 Vector   13  Occ=2.000000D+00  E=-6.150403D-01
              MO Center= -6.7D-01,  5.2D-01, -1.3D+00, r^2= 1.8D+00
   Bfn.  Coefficient  Atom+Function         Bfn.  Coefficient  Atom+Function  
  ----- ------------  ---------------      ----- ------------  ---------------
     4      0.420546   1 O  px                3     -0.311872   1 O  s         
     7      0.270923   1 O  px                6      0.251038   1 O  pz        
    15      0.195037   2 H  s                20      0.190383   3 H  s         
     9      0.168536   1 O  pz        

 Vector   14  Occ=2.000000D+00  E=-5.748663D-01
              MO Center=  3.2D+00, -7.3D-02, -1.7D-01, r^2= 7.2D-01
   Bfn.  Coefficient  Atom+Function         Bfn.  Coefficient  Atom+Function  
  ----- ------------  ---------------      ----- ------------  ---------------
    53      0.494307   7 O  py               51      0.340485   7 O  s         
    56      0.334349   7 O  py               54     -0.229167   7 O  pz        
    68     -0.212138   9 H  s                63     -0.198544   8 H  s         
    57     -0.156048   7 O  pz        

 Vector   15  Occ=2.000000D+00  E=-5.740611D-01
              MO Center= -1.6D+00, -9.5D-03,  5.7D-02, r^2= 3.1D+00
   Bfn.  Coefficient  Atom+Function         Bfn.  Coefficient  Atom+Function  
  ----- ------------  ---------------      ----- ------------  ---------------
    77      0.315060  10 O  py               78     -0.270660  10 O  pz        
    75     -0.259937  10 O  s                 6      0.246411   1 O  pz        
    29     -0.213733   4 O  py               80      0.208654  10 O  py        
    81     -0.187230  10 O  pz                9      0.181787   1 O  pz        
    92      0.172218  12 H  s                39     -0.157359   5 H  s         

 Vector   16  Occ=2.000000D+00  E=-5.471687D-01
              MO Center= -6.8D-01, -2.6D-01,  8.9D-01, r^2= 3.1D+00
   Bfn.  Coefficient  Atom+Function         Bfn.  Coefficient  Atom+Function  
  ----- ------------  ---------------      ----- ------------  ---------------
    29      0.367467   4 O  py               27     -0.269253   4 O  s         
    32      0.249268   4 O  py               77      0.219863  10 O  py        
     6      0.187768   1 O  pz               28     -0.176507   4 O  px        
    30     -0.168271   4 O  pz               39      0.166166   5 H  s         
    44      0.161970   6 H  s                80      0.162306  10 O  py        

 Vector   17  Occ=2.000000D+00  E=-5.218378D-01
              MO Center= -9.2D-01,  3.3D-01, -9.0D-01, r^2= 2.7D+00
   Bfn.  Coefficient  Atom+Function         Bfn.  Coefficient  Atom+Function  
  ----- ------------  ---------------      ----- ------------  ---------------
     6      0.400563   1 O  pz                4     -0.316706   1 O  px        
     9      0.316886   1 O  pz                7     -0.239584   1 O  px        
    77     -0.226390  10 O  py               78      0.174965  10 O  pz        
    80     -0.165979  10 O  py        

 Vector   18  Occ=2.000000D+00  E=-5.032271D-01
              MO Center=  3.2D+00, -1.3D-01, -1.4D-01, r^2= 6.5D-01
   Bfn.  Coefficient  Atom+Function         Bfn.  Coefficient  Atom+Function  
  ----- ------------  ---------------      ----- ------------  ---------------
    54      0.482816   7 O  pz               57      0.378820   7 O  pz        
    52     -0.337068   7 O  px               55     -0.266998   7 O  px        
    53      0.224118   7 O  py               56      0.176560   7 O  py        

 Vector   19  Occ=2.000000D+00  E=-4.903238D-01
              MO Center= -2.2D+00, -1.2D-01,  3.0D-01, r^2= 1.6D+00
   Bfn.  Coefficient  Atom+Function         Bfn.  Coefficient  Atom+Function  
  ----- ------------  ---------------      ----- ------------  ---------------
    78      0.394051  10 O  pz               77      0.341712  10 O  py        
    81      0.305897  10 O  pz               80      0.279157  10 O  py        
    76      0.264862  10 O  px               79      0.210761  10 O  px        
    28      0.164335   4 O  px               29     -0.150703   4 O  py        

 Vector   20  Occ=2.000000D+00  E=-4.680799D-01
              MO Center= -2.9D-01, -4.6D-01,  1.6D+00, r^2= 7.7D-01
   Bfn.  Coefficient  Atom+Function         Bfn.  Coefficient  Atom+Function  
  ----- ------------  ---------------      ----- ------------  ---------------
    30      0.579650   4 O  pz               33      0.464820   4 O  pz        
    28     -0.164234   4 O  px               29      0.152241   4 O  py        

 Vector   21  Occ=0.000000D+00  E= 1.288693D-01
              MO Center=  8.5D-01,  9.0D-03, -4.2D-01, r^2= 5.6D+00
   Bfn.  Coefficient  Atom+Function         Bfn.  Coefficient  Atom+Function  
  ----- ------------  ---------------      ----- ------------  ---------------
     3      0.596659   1 O  s                69     -0.546582   9 H  s         
    21     -0.526166   3 H  s                51      0.489011   7 O  s         
    16     -0.483120   2 H  s                40     -0.396469   5 H  s         
    27      0.267500   4 O  s                93     -0.256057  12 H  s         
    64     -0.238919   8 H  s                 7      0.187406   1 O  px        

 Vector   22  Occ=0.000000D+00  E= 1.902710D-01
              MO Center=  2.8D-01,  9.2D-02,  7.4D-02, r^2= 1.2D+01
   Bfn.  Coefficient  Atom+Function         Bfn.  Coefficient  Atom+Function  
  ----- ------------  ---------------      ----- ------------  ---------------
    93      0.773441  12 H  s                51      0.658601   7 O  s         
    64     -0.599416   8 H  s                75     -0.546812  10 O  s         
    16      0.540029   2 H  s                69     -0.505135   9 H  s         
    40      0.281986   5 H  s                21     -0.256602   3 H  s         
    27     -0.212191   4 O  s                56     -0.206584   7 O  py        

 Vector   23  Occ=0.000000D+00  E= 2.096774D-01
              MO Center=  1.1D+00, -9.1D-02, -2.5D-01, r^2= 7.6D+00
   Bfn.  Coefficient  Atom+Function         Bfn.  Coefficient  Atom+Function  
  ----- ------------  ---------------      ----- ------------  ---------------
    21      1.071668   3 H  s                64     -0.818141   8 H  s         
    16     -0.669508   2 H  s                40     -0.671564   5 H  s         
    69      0.421934   9 H  s                 8      0.411433   1 O  py        
    27      0.325874   4 O  s                55      0.251569   7 O  px        
    93      0.242591  12 H  s                 3     -0.233304   1 O  s         

 Vector   24  Occ=0.000000D+00  E= 2.145013D-01
              MO Center= -8.5D-01,  4.3D-01,  6.6D-02, r^2= 1.3D+01
   Bfn.  Coefficient  Atom+Function         Bfn.  Coefficient  Atom+Function  
  ----- ------------  ---------------      ----- ------------  ---------------
    93      1.077349  12 H  s                64      0.727968   8 H  s         
    75     -0.629451  10 O  s                16     -0.562467   2 H  s         
    51     -0.416332   7 O  s                 3      0.383311   1 O  s         
    79      0.276737  10 O  px               40     -0.193674   5 H  s         
    80     -0.191400  10 O  py        

 Vector   25  Occ=0.000000D+00  E= 2.598898D-01
              MO Center=  8.5D-01,  4.2D-01,  4.8D-01, r^2= 6.7D+00
   Bfn.  Coefficient  Atom+Function         Bfn.  Coefficient  Atom+Function  
  ----- ------------  ---------------      ----- ------------  ---------------
    40     -0.979035   5 H  s                16      0.890680   2 H  s         
    27      0.698590   4 O  s                64      0.687241   8 H  s         
    69     -0.662950   9 H  s                 3     -0.600605   1 O  s         
    55     -0.286016   7 O  px               32      0.279766   4 O  py        
    45     -0.212766   6 H  s                57     -0.167803   7 O  pz        

 Vector   26  Occ=0.000000D+00  E= 2.943460D-01
              MO Center=  1.1D+00, -3.8D-01, -3.7D-01, r^2= 7.3D+00
   Bfn.  Coefficient  Atom+Function         Bfn.  Coefficient  Atom+Function  
  ----- ------------  ---------------      ----- ------------  ---------------
    69      1.199119   9 H  s                21     -1.014085   3 H  s         
    16      0.790127   2 H  s                64     -0.770476   8 H  s         
    40     -0.524775   5 H  s                 8     -0.397554   1 O  py        
    27      0.392710   4 O  s                55      0.390358   7 O  px        
    93      0.375445  12 H  s                88     -0.300438  11 H  s         

 Vector   27  Occ=0.000000D+00  E= 3.687194D-01
              MO Center= -1.5D+00,  4.3D-03,  3.9D-01, r^2= 5.4D+00
   Bfn.  Coefficient  Atom+Function         Bfn.  Coefficient  Atom+Function  
  ----- ------------  ---------------      ----- ------------  ---------------
    45      1.311660   6 H  s                88      1.260777  11 H  s         
    93     -0.890440  12 H  s                40     -0.787476   5 H  s         
    79     -0.561557  10 O  px               21     -0.551532   3 H  s         
    31      0.453947   4 O  px               75     -0.416237  10 O  s         
    69      0.318264   9 H  s                27     -0.309141   4 O  s         

 Vector   28  Occ=0.000000D+00  E= 3.894345D-01
              MO Center= -1.6D+00,  6.6D-02,  1.7D-01, r^2= 5.1D+00
   Bfn.  Coefficient  Atom+Function         Bfn.  Coefficient  Atom+Function  
  ----- ------------  ---------------      ----- ------------  ---------------
    88      1.763977  11 H  s                45     -1.584241   6 H  s         
    40      0.698498   5 H  s                81      0.491736  10 O  pz        
    27      0.459740   4 O  s                31     -0.439604   4 O  px        
    16     -0.428465   2 H  s                75     -0.412728  10 O  s         
    93     -0.395973  12 H  s                 7      0.296233   1 O  px        

 Vector   29  Occ=0.000000D+00  E= 7.286853D-01
              MO Center= -4.9D-01,  4.7D-01, -1.1D+00, r^2= 3.0D+00
   Bfn.  Coefficient  Atom+Function         Bfn.  Coefficient  Atom+Function  
  ----- ------------  ---------------      ----- ------------  ---------------
    15      0.899485   2 H  s                20     -0.836835   3 H  s         
    16     -0.706028   2 H  s                21      0.623170   3 H  s         
    92      0.396778  12 H  s                 8     -0.388738   1 O  py        
    45     -0.287052   6 H  s                88      0.263602  11 H  s         
    87     -0.257462  11 H  s                93     -0.233191  12 H  s         

 Vector   30  Occ=0.000000D+00  E= 7.483040D-01
              MO Center= -1.1D+00, -4.0D-02,  3.3D-01, r^2= 4.5D+00
   Bfn.  Coefficient  Atom+Function         Bfn.  Coefficient  Atom+Function  
  ----- ------------  ---------------      ----- ------------  ---------------
    88     -0.865853  11 H  s                45      0.802946   6 H  s         
    87      0.777304  11 H  s                44     -0.648882   6 H  s         
    20     -0.468351   3 H  s                39      0.449483   5 H  s         
    21      0.370184   3 H  s                40     -0.371096   5 H  s         
    92     -0.345348  12 H  s                93      0.324274  12 H  s         


 center of mass
 --------------
 x =  -0.00753054 y =  -0.01148280 z =   0.00108657

 moments of inertia (a.u.)
 ------------------
         384.388328574547          37.229715209658          23.334196098022
          37.229715209658        1427.217522228631         105.240356513475
          23.334196098022         105.240356513475        1136.072959589028

  Mulliken analysis of the total density
  --------------------------------------

    Atom       Charge   Shell Charges
 -----------   ------   -------------------------------------------------------
    1 O    8     8.32   2.00  0.84  0.84  2.82  1.81  0.01
    2 H    1     0.82   0.67  0.07  0.08
    3 H    1     0.81   0.67  0.06  0.08
    4 O    8     8.38   2.00  0.83  0.84  2.81  1.88  0.01
    5 H    1     0.86   0.69  0.09  0.08
    6 H    1     0.81   0.63  0.08  0.09
    7 O    8     8.34   2.00  0.83  0.84  2.81  1.84  0.01
    8 H    1     0.83   0.68  0.07  0.08
    9 H    1     0.83   0.67  0.08  0.08
   10 O    8     8.37   2.00  0.83  0.84  2.83  1.86  0.01
   11 H    1     0.80   0.63  0.09  0.09
   12 H    1     0.84   0.68  0.07  0.08

       Multipole analysis of the density wrt the origin
       ------------------------------------------------

     L   x y z        total         open         nuclear
     -   - - -        -----         ----         -------
     0   0 0 0     -0.000000      0.000000     40.000000

     1   1 0 0      0.255753      0.000000     -0.000000
     1   0 1 0      0.430943      0.000000     -0.000000
     1   0 0 1     -0.301327      0.000000      0.000000

     2   2 0 0    -14.483192      0.000000    610.522794
     2   1 1 0     -6.286222      0.000000    -28.241712
     2   1 0 1      2.554776      0.000000    -10.483654
     2   0 2 0    -17.446971      0.000000     28.447057
     2   0 1 1      3.543393      0.000000    -54.032039
     2   0 0 2    -23.627531      0.000000    183.686566


 Parallel integral file used     106 records with       0 large values

                              NWChem Gradients Module
                              -----------------------



  wavefunction    =   RHF     



                         RHF ENERGY GRADIENTS

    atom               coordinates                        gradient
                 x          y          z           x          y          z
   1 O      -0.841255   1.158747  -3.023676   -0.033418   0.006775  -0.019198
   2 H       0.205119   2.210693  -1.931158    0.014674   0.013477   0.018482
   3 H       0.012305  -0.468004  -2.930560    0.013424  -0.021648   0.003347
   4 O      -0.501428  -0.929212   3.160029    0.007135  -0.032106   0.015073
   5 H       0.333002   0.697876   2.947476    0.012604   0.026129  -0.006268
   6 H      -2.209014  -0.618441   2.512447   -0.024260   0.007487  -0.010112
   7 O       6.022500  -0.202460  -0.294269    0.013678   0.030586  -0.005745
   8 H       7.253357  -0.859658   0.880601    0.015465  -0.005428   0.012718
   9 H       4.788313  -1.572886  -0.511998   -0.026984  -0.025015  -0.008255
  10 O      -4.748210  -0.131363   0.167785    0.002332  -0.023139   0.020367
  11 H      -3.618588   0.499018  -1.170726    0.021586   0.010923  -0.020154
  12 H      -6.217348   0.945707   0.124971   -0.016235   0.011959  -0.000255

                 ----------------------------------------
                 |  Time  |  1-e(secs)   |  2-e(secs)   |
                 ----------------------------------------
                 |  CPU   |       0.01   |       1.12   |
                 ----------------------------------------
                 |  WALL  |       0.01   |       1.12   |
                 ----------------------------------------

 Task  times  cpu:        3.5s     wall:        3.6s


                                NWChem Input Module
                                -------------------


 Summary of allocated global arrays
-----------------------------------
  No active global arrays



                         GA Statistics for process    0
                         ------------------------------

       create   destroy   get      put      acc     scatter   gather  read&inc
calls:  268      268     1.11e+04 5677     4684        0        0      166     
number of processes/call 0.00e+00 0.00e+00 0.00e+00 0.00e+00 0.00e+00
bytes total:             2.58e+07 1.54e+07 3.80e+06 0.00e+00 0.00e+00 1.33e+03
bytes remote:            0.00e+00 0.00e+00 0.00e+00 0.00e+00 0.00e+00 0.00e+00
Max memory consumed for GA by this process: 958464 bytes

MA_summarize_allocated_blocks: starting scan ...
MA_summarize_allocated_blocks: scan completed: 0 heap blocks, 0 stack blocks
MA usage statistics:

	allocation statistics:
					      heap	     stack
					      ----	     -----
	current number of blocks	         0	         0
	maximum number of blocks	        18	        28
	current total bytes		         0	         0
	maximum total bytes		 177770832	  26178744
	maximum total K-bytes		    177771	     26179
	maximum total M-bytes		       178	        27


                                     CITATION
                                     --------
                Please cite the following reference when publishing
                           results obtained with NWChem:

          E. Aprà, E. J. Bylaska, W. A. de Jong, N. Govind, K. Kowalski,
       T. P. Straatsma, M. Valiev, H. J. J. van Dam, Y. Alexeev, J. Anchell,
       V. Anisimov, F. W. Aquino, R. Atta-Fynn, J. Autschbach, N. P. Bauman,
     J. C. Becca, D. E. Bernholdt, K. Bhaskaran-Nair, S. Bogatko, P. Borowski,
        J. Boschen, J. Brabec, A. Bruner, E. Cauët, Y. Chen, G. N. Chuev,
      C. J. Cramer, J. Daily, M. J. O. Deegan, T. H. Dunning Jr., M. Dupuis,
   K. G. Dyall, G. I. Fann, S. A. Fischer, A. Fonari, H. Früchtl, L. Gagliardi,
      J. Garza, N. Gawande, S. Ghosh, K. Glaesemann, A. W. Götz, J. Hammond,
       V. Helms, E. D. Hermes, K. Hirao, S. Hirata, M. Jacquelin, L. Jensen,
   B. G. Johnson, H. Jónsson, R. A. Kendall, M. Klemm, R. Kobayashi, V. Konkov,
      S. Krishnamoorthy, M. Krishnan, Z. Lin, R. D. Lins, R. J. Littlefield,
      A. J. Logsdail, K. Lopata, W. Ma, A. V. Marenich, J. Martin del Campo,
   D. Mejia-Rodriguez, J. E. Moore, J. M. Mullin, T. Nakajima, D. R. Nascimento,
    J. A. Nichols, P. J. Nichols, J. Nieplocha, A. Otero-de-la-Roza, B. Palmer,
    A. Panyala, T. Pirojsirikul, B. Peng, R. Peverati, J. Pittner, L. Pollack,
   R. M. Richard, P. Sadayappan, G. C. Schatz, W. A. Shelton, D. W. Silverstein,
   D. M. A. Smith, T. A. Soares, D. Song, M. Swart, H. L. Taylor, G. S. Thomas,
            V. Tipparaju, D. G. Truhlar, K. Tsemekhman, T. Van Voorhis,
     Á. Vázquez-Mayagoitia, P. Verma, O. Villa, A. Vishnu, K. D. Vogiatzis,
        D. Wang, J. H. Weare, M. J. Williamson, T. L. Windus, K. Woliński,
        A. T. Wong, Q. Wu, C. Yang, Q. Yu, M. Zacharias, Z. Zhang, Y. Zhao,
                                and R. J. Harrison
                        "NWChem: Past, present, and future
                         J. Chem. Phys. 152, 184102 (2020)
                               doi:10.1063/5.0004997

                                      AUTHORS
                                      -------
     E. Apra, E. J. Bylaska, N. Govind, K. Kowalski, M. Valiev, W. A. de Jong,
      T. P. Straatsma, H. J. J. van Dam, D. Wang, T. L. Windus, N. P. Bauman,
       A. Panyala, J. Hammond, J. Autschbach, K. Bhaskaran-Nair, J. Brabec,
    K. Lopata, S. A. Fischer, S. Krishnamoorthy, M. Jacquelin, W. Ma, M. Klemm,
       O. Villa, Y. Chen, V. Anisimov, F. Aquino, S. Hirata, M. T. Hackler,
           Eric Hermes, L. Jensen, J. E. Moore, J. C. Becca, V. Konjkov,
            D. Mejia-Rodriguez, T. Risthaus, M. Malagoli, A. Marenich,
   A. Otero-de-la-Roza, J. Mullin, P. Nichols, R. Peverati, J. Pittner, Y. Zhao,
        P.-D. Fan, A. Fonari, M. J. Williamson, R. J. Harrison, J. R. Rehr,
      M. Dupuis, D. Silverstein, D. M. A. Smith, J. Nieplocha, V. Tipparaju,
      M. Krishnan, B. E. Van Kuiken, A. Vazquez-Mayagoitia, M. Swart, Q. Wu,
   T. Van Voorhis, A. A. Auer, M. Nooijen, L. D. Crosby, E. Brown, G. Cisneros,
     G. I. Fann, H. Fruchtl, J. Garza, K. Hirao, R. A. Kendall, J. A. Nichols,
       K. Tsemekhman, K. Wolinski, J. Anchell, D. E. Bernholdt, P. Borowski,
       T. Clark, D. Clerc, H. Dachsel, M. J. O. Deegan, K. Dyall, D. Elwood,
      E. Glendening, M. Gutowski, A. C. Hess, J. Jaffe, B. G. Johnson, J. Ju,
        R. Kobayashi, R. Kutteh, Z. Lin, R. Littlefield, X. Long, B. Meng,
      T. Nakajima, S. Niu, L. Pollack, M. Rosing, K. Glaesemann, G. Sandrone,
      M. Stave, H. Taylor, G. Thomas, J. H. van Lenthe, A. T. Wong, Z. Zhang.

 Total times  cpu:        3.5s     wall:        3.6s
