 argument  1 = nwchem/input_3_9_at_worker_4_1.nw



============================== echo of input deck ==============================
echo
memory 1000 mb
geometry noautosym noautoz
O 0.87715956 1.70409266 0.47858616
H 1.70199937 1.19722607 0.29220265
H 1.16181787 2.60891668 0.65546661
O 0.57630762 -1.69154092 -0.42866929
H 0.43417462 -2.64420081 -0.48595869
H 0.08911917 -1.3894609 0.38589939
O -2.88801599 -0.0663369 0.05761427
H -2.29024563 0.26724676 -0.65069518
H -3.66545029 0.50362404 0.03495814
end
basis spherical
 * library cc-pvdz
end
task scf gradient
================================================================================


                                         
                                         


             Northwest Computational Chemistry Package (NWChem) 7.0.2
             --------------------------------------------------------


                    Environmental Molecular Sciences Laboratory
                       Pacific Northwest National Laboratory
                                Richland, WA 99352

                              Copyright (c) 1994-2020
                       Pacific Northwest National Laboratory
                            Battelle Memorial Institute

             NWChem is an open-source computational chemistry package
                        distributed under the terms of the
                      Educational Community License (ECL) 2.0
             A copy of the license is included with this distribution
                              in the LICENSE.TXT file

                                  ACKNOWLEDGMENT
                                  --------------

            This software and its documentation were developed at the
            EMSL at Pacific Northwest National Laboratory, a multiprogram
            national laboratory, operated for the U.S. Department of Energy
            by Battelle under Contract Number DE-AC05-76RL01830. Support
            for this work was provided by the Department of Energy Office
            of Biological and Environmental Research, Office of Basic
            Energy Sciences, and the Office of Advanced Scientific Computing.


           Job information
           ---------------

    hostname        = pop-os
    program         = nwchem
    date            = Thu Jul  8 18:22:23 2021

    compiled        = Wed_Jan_06_19:48:08_2021
    source          = /build/nwchem-ksKH2r/nwchem-7.0.2
    nwchem branch   = 7.0.2
    nwchem revision = N/A
    ga revision     = 5.7.1
    use scalapack   = T
    input           = nwchem/input_3_9_at_worker_4_1.nw
    prefix          = input_3_9_at_worker_4_1.
    data base       = ./input_3_9_at_worker_4_1.db
    status          = startup
    nproc           =        1
    time left       =     -1s



           Memory information
           ------------------

    heap     =   32767996 doubles =    250.0 Mbytes
    stack    =   32768001 doubles =    250.0 Mbytes
    global   =   65536000 doubles =    500.0 Mbytes (distinct from heap & stack)
    total    =  131071997 doubles =   1000.0 Mbytes
    verify   = yes
    hardfail = no 


           Directory information
           ---------------------

  0 permanent = .
  0 scratch   = .




                                NWChem Input Module
                                -------------------



 Scaling coordinates for geometry "geometry" by  1.889725989
 (inverse scale =  0.529177249)



                             Geometry "geometry" -> ""
                             -------------------------

 Output coordinates in angstroms (scale by  1.889725989 to convert to a.u.)

  No.       Tag          Charge          X              Y              Z
 ---- ---------------- ---------- -------------- -------------- --------------
    1 O                    8.0000     1.34532541     1.70032364     0.44218209
    2 H                    1.0000     2.17016522     1.19345705     0.25579858
    3 H                    1.0000     1.62998372     2.60514766     0.61906254
    4 O                    8.0000     1.04447347    -1.69530994    -0.46507336
    5 H                    1.0000     0.90234047    -2.64796983    -0.52236276
    6 H                    1.0000     0.55728502    -1.39322992     0.34949532
    7 O                    8.0000    -2.41985014    -0.07010592     0.02121020
    8 H                    1.0000    -1.82207978     0.26347774    -0.68709925
    9 H                    1.0000    -3.19728444     0.49985502    -0.00144593

      Atomic Mass 
      ----------- 

      O                 15.994910
      H                  1.007825


 Effective nuclear repulsion energy (a.u.)      67.7545550478

            Nuclear Dipole moment (a.u.) 
            ----------------------------
        X                 Y               Z
 ---------------- ---------------- ----------------
    -0.0000000000    -0.0000000000     0.0000000000


            XYZ format geometry
            -------------------
     9
 geometry
 O                     1.34532541     1.70032364     0.44218209
 H                     2.17016522     1.19345705     0.25579858
 H                     1.62998372     2.60514766     0.61906254
 O                     1.04447347    -1.69530994    -0.46507336
 H                     0.90234047    -2.64796983    -0.52236276
 H                     0.55728502    -1.39322992     0.34949532
 O                    -2.41985014    -0.07010592     0.02121020
 H                    -1.82207978     0.26347774    -0.68709925
 H                    -3.19728444     0.49985502    -0.00144593

 ==============================================================================
                                internuclear distances
 ------------------------------------------------------------------------------
       center one      |      center two      | atomic units |  angstroms
 ------------------------------------------------------------------------------
    2 H                |   1 O                |     1.86309  |     0.98591
    3 H                |   1 O                |     1.82339  |     0.96490
    5 H                |   4 O                |     1.82341  |     0.96491
    6 H                |   4 O                |     1.88227  |     0.99606
    8 H                |   7 O                |     1.86146  |     0.98504
    9 H                |   7 O                |     1.82216  |     0.96425
 ------------------------------------------------------------------------------
                         number of included internuclear distances:          6
 ==============================================================================



 ==============================================================================
                                 internuclear angles
 ------------------------------------------------------------------------------
        center 1       |       center 2       |       center 3       |  degrees
 ------------------------------------------------------------------------------
    2 H                |   1 O                |   3 H                |   105.66
    5 H                |   4 O                |   6 H                |   106.02
    8 H                |   7 O                |   9 H                |   105.80
 ------------------------------------------------------------------------------
                            number of included internuclear angles:          3
 ==============================================================================





 Summary of "ao basis" -> "" (spherical)
 ------------------------------------------------------------------------------
       Tag                 Description            Shells   Functions and Types
 ---------------- ------------------------------  ------  ---------------------
 *                          cc-pvdz                   on all atoms 


                      Basis "ao basis" -> "ao basis" (spherical)
                      -----
  O (Oxygen)
  ----------
            Exponent  Coefficients 
       -------------- ---------------------------------------------------------
  1 S  1.17200000E+04  0.000710
  1 S  1.75900000E+03  0.005470
  1 S  4.00800000E+02  0.027837
  1 S  1.13700000E+02  0.104800
  1 S  3.70300000E+01  0.283062
  1 S  1.32700000E+01  0.448719
  1 S  5.02500000E+00  0.270952
  1 S  1.01300000E+00  0.015458

  2 S  1.17200000E+04 -0.000160
  2 S  1.75900000E+03 -0.001263
  2 S  4.00800000E+02 -0.006267
  2 S  1.13700000E+02 -0.025716
  2 S  3.70300000E+01 -0.070924
  2 S  1.32700000E+01 -0.165411
  2 S  5.02500000E+00 -0.116955
  2 S  1.01300000E+00  0.557368

  3 S  3.02300000E-01  1.000000

  4 P  1.77000000E+01  0.043018
  4 P  3.85400000E+00  0.228913
  4 P  1.04600000E+00  0.508728

  5 P  2.75300000E-01  1.000000

  6 D  1.18500000E+00  1.000000

  H (Hydrogen)
  ------------
            Exponent  Coefficients 
       -------------- ---------------------------------------------------------
  1 S  1.30100000E+01  0.019685
  1 S  1.96200000E+00  0.137977
  1 S  4.44600000E-01  0.478148

  2 S  1.22000000E-01  1.000000

  3 P  7.27000000E-01  1.000000



 Summary of "ao basis" -> "ao basis" (spherical)
 ------------------------------------------------------------------------------
       Tag                 Description            Shells   Functions and Types
 ---------------- ------------------------------  ------  ---------------------
 O                          cc-pvdz                  6       14   3s2p1d
 H                          cc-pvdz                  3        5   2s1p


                                 NWChem SCF Module
                                 -----------------



  ao basis        = "ao basis"
  functions       =    72
  atoms           =     9
  closed shells   =    15
  open shells     =     0
  charge          =   0.00
  wavefunction    = RHF 
  input vectors   = atomic
  output vectors  = ./input_3_9_at_worker_4_1.movecs
  use symmetry    = F
  symmetry adapt  = F


 Summary of "ao basis" -> "ao basis" (spherical)
 ------------------------------------------------------------------------------
       Tag                 Description            Shells   Functions and Types
 ---------------- ------------------------------  ------  ---------------------
 O                          cc-pvdz                  6       14   3s2p1d
 H                          cc-pvdz                  3        5   2s1p



 Forming initial guess at       0.0s


      Superposition of Atomic Density Guess
      -------------------------------------

 Sum of atomic energies:        -227.28668731

      Non-variational initial energy
      ------------------------------

 Total energy =    -227.662263
 1-e energy   =    -445.875998
 2-e energy   =     150.459180
 HOMO         =      -0.462361
 LUMO         =       0.053424


 Starting SCF solution at       0.2s



 ----------------------------------------------
         Quadratically convergent ROHF

 Convergence threshold     :          1.000E-04
 Maximum no. of iterations :           30
 Final Fock-matrix accuracy:          1.000E-07
 ----------------------------------------------


 Integral file          = ./input_3_9_at_worker_4_1.aoints.0
 Record size in doubles =  65536        No. of integs per rec  =  43688
 Max. records in memory =    110        Max. records in file   = 400194
 No. of bits per label  =      8        No. of bits per value  =     64


 #quartets = 1.234D+05 #integrals = 1.341D+06 #direct =  0.0% #cached =100.0%


              iter       energy          gnorm     gmax       time
             ----- ------------------- --------- --------- --------
                 1     -227.9782755688  1.42D+00  3.43D-01      0.4
                 2     -228.0734015242  3.00D-01  6.88D-02      0.5
                 3     -228.0802580584  2.60D-02  6.13D-03      0.6
                 4     -228.0803104730  4.20D-04  7.29D-05      0.6
                 5     -228.0803104854  6.52D-06  1.23D-06      0.7


       Final RHF  results 
       ------------------ 

         Total SCF energy =   -228.080310485401
      One-electron energy =   -450.152492555286
      Two-electron energy =    154.317627022081
 Nuclear repulsion energy =     67.754555047804

        Time for solution =      0.5s


             Final eigenvalues
             -----------------

              1      
    1  -20.5495
    2  -20.5447
    3  -20.5432
    4   -1.3233
    5   -1.3177
    6   -1.3151
    7   -0.6891
    8   -0.6833
    9   -0.6787
   10   -0.5578
   11   -0.5529
   12   -0.5507
   13   -0.4882
   14   -0.4823
   15   -0.4821
   16    0.1644
   17    0.2001
   18    0.2123
   19    0.2655
   20    0.2701
   21    0.2863
   22    0.7494
   23    0.7896
   24    0.8289
   25    0.8407

                       ROHF Final Molecular Orbital Analysis
                       -------------------------------------

 Vector    4  Occ=2.000000D+00  E=-1.323290D+00
              MO Center=  1.5D+00,  1.7D+00,  4.4D-01, r^2= 5.7D-01
   Bfn.  Coefficient  Atom+Function         Bfn.  Coefficient  Atom+Function  
  ----- ------------  ---------------      ----- ------------  ---------------
     2      0.443924  1 O  s                  3      0.388899  1 O  s          
    20      0.190892  3 H  s                 15      0.178727  2 H  s          

 Vector    5  Occ=2.000000D+00  E=-1.317657D+00
              MO Center= -2.4D+00,  3.7D-02, -7.9D-02, r^2= 6.8D-01
   Bfn.  Coefficient  Atom+Function         Bfn.  Coefficient  Atom+Function  
  ----- ------------  ---------------      ----- ------------  ---------------
    50      0.442323  7 O  s                 51      0.387167  7 O  s          
    68      0.190636  9 H  s                 63      0.178212  8 H  s          

 Vector    6  Occ=2.000000D+00  E=-1.315143D+00
              MO Center=  9.3D-01, -1.8D+00, -3.6D-01, r^2= 7.3D-01
   Bfn.  Coefficient  Atom+Function         Bfn.  Coefficient  Atom+Function  
  ----- ------------  ---------------      ----- ------------  ---------------
    26      0.441979  4 O  s                 27      0.391609  4 O  s          
    39      0.190142  5 H  s                 44      0.172557  6 H  s          

 Vector    7  Occ=2.000000D+00  E=-6.890555D-01
              MO Center=  1.4D+00,  1.3D+00,  3.4D-01, r^2= 2.5D+00
   Bfn.  Coefficient  Atom+Function         Bfn.  Coefficient  Atom+Function  
  ----- ------------  ---------------      ----- ------------  ---------------
     5      0.415959  1 O  py                20      0.306207  3 H  s          
    15     -0.293419  2 H  s                  8      0.193686  1 O  py         

 Vector    8  Occ=2.000000D+00  E=-6.832793D-01
              MO Center= -1.9D+00,  1.7D-02, -1.1D-01, r^2= 2.9D+00
   Bfn.  Coefficient  Atom+Function         Bfn.  Coefficient  Atom+Function  
  ----- ------------  ---------------      ----- ------------  ---------------
    52      0.401965  7 O  px                68     -0.305921  9 H  s          
    63      0.293697  8 H  s                 54     -0.189833  7 O  pz         
    55      0.186891  7 O  px         

 Vector    9  Occ=2.000000D+00  E=-6.786806D-01
              MO Center=  5.5D-01, -1.3D+00, -2.3D-01, r^2= 3.5D+00
   Bfn.  Coefficient  Atom+Function         Bfn.  Coefficient  Atom+Function  
  ----- ------------  ---------------      ----- ------------  ---------------
    29      0.356883  4 O  py                39     -0.293748  5 H  s          
    44      0.279263  6 H  s                 30      0.230102  4 O  pz         
    32      0.166928  4 O  py                52     -0.155507  7 O  px         

 Vector   10  Occ=2.000000D+00  E=-5.578317D-01
              MO Center=  1.3D+00,  1.7D+00,  4.4D-01, r^2= 7.6D-01
   Bfn.  Coefficient  Atom+Function         Bfn.  Coefficient  Atom+Function  
  ----- ------------  ---------------      ----- ------------  ---------------
     4      0.511771  1 O  px                 7      0.347550  1 O  px         
     3     -0.340163  1 O  s                 15      0.207450  2 H  s          
    20      0.199779  3 H  s                  5      0.182996  1 O  py         

 Vector   11  Occ=2.000000D+00  E=-5.529368D-01
              MO Center= -1.6D+00, -4.9D-01, -8.5D-02, r^2= 3.4D+00
   Bfn.  Coefficient  Atom+Function         Bfn.  Coefficient  Atom+Function  
  ----- ------------  ---------------      ----- ------------  ---------------
    53      0.362792  7 O  py                51     -0.294635  7 O  s          
    54     -0.295619  7 O  pz                56      0.247684  7 O  py         
    57     -0.200429  7 O  pz                63      0.182109  8 H  s          
    27      0.178254  4 O  s                 68      0.171027  9 H  s          
    30     -0.169578  4 O  pz                29      0.150410  4 O  py         

 Vector   12  Occ=2.000000D+00  E=-5.506691D-01
              MO Center=  2.2D-01, -1.3D+00, -3.5D-01, r^2= 3.5D+00
   Bfn.  Coefficient  Atom+Function         Bfn.  Coefficient  Atom+Function  
  ----- ------------  ---------------      ----- ------------  ---------------
    30     -0.306736  4 O  pz                27      0.283554  4 O  s          
    29      0.257196  4 O  py                28      0.254016  4 O  px         
    33     -0.212633  4 O  pz                53     -0.208823  7 O  py         
    44     -0.184635  6 H  s                 31      0.174745  4 O  px         
    32      0.174541  4 O  py                39     -0.168291  5 H  s          

 Vector   13  Occ=2.000000D+00  E=-4.881634D-01
              MO Center=  1.4D+00,  1.7D+00,  4.4D-01, r^2= 6.7D-01
   Bfn.  Coefficient  Atom+Function         Bfn.  Coefficient  Atom+Function  
  ----- ------------  ---------------      ----- ------------  ---------------
     6      0.612337  1 O  pz                 9      0.481907  1 O  pz         

 Vector   14  Occ=2.000000D+00  E=-4.823136D-01
              MO Center=  8.7D-01, -1.6D+00, -4.3D-01, r^2= 1.3D+00
   Bfn.  Coefficient  Atom+Function         Bfn.  Coefficient  Atom+Function  
  ----- ------------  ---------------      ----- ------------  ---------------
    28      0.503572  4 O  px                31      0.397835  4 O  px         
    30      0.336931  4 O  pz                33      0.264955  4 O  pz         

 Vector   15  Occ=2.000000D+00  E=-4.821239D-01
              MO Center= -2.3D+00, -1.3D-01, -1.4D-02, r^2= 1.3D+00
   Bfn.  Coefficient  Atom+Function         Bfn.  Coefficient  Atom+Function  
  ----- ------------  ---------------      ----- ------------  ---------------
    54      0.404961  7 O  pz                53      0.380647  7 O  py         
    57      0.319782  7 O  pz                56      0.298378  7 O  py         
    52      0.266115  7 O  px                55      0.209676  7 O  px         

 Vector   16  Occ=0.000000D+00  E= 1.644427D-01
              MO Center=  3.8D-01,  8.9D-02,  3.4D-02, r^2= 8.1D+00
   Bfn.  Coefficient  Atom+Function         Bfn.  Coefficient  Atom+Function  
  ----- ------------  ---------------      ----- ------------  ---------------
     3      0.587948  1 O  s                 27      0.556034  4 O  s          
    45     -0.492510  6 H  s                 64     -0.486811  8 H  s          
    16     -0.483723  2 H  s                 51      0.485434  7 O  s          
    21     -0.458470  3 H  s                 40     -0.410649  5 H  s          
    69     -0.296727  9 H  s                  7      0.188933  1 O  px         

 Vector   17  Occ=0.000000D+00  E= 2.001429D-01
              MO Center= -4.6D-01,  1.3D+00,  1.2D-01, r^2= 9.8D+00
   Bfn.  Coefficient  Atom+Function         Bfn.  Coefficient  Atom+Function  
  ----- ------------  ---------------      ----- ------------  ---------------
    69      0.764424  9 H  s                  3      0.682286  1 O  s          
    21     -0.681011  3 H  s                 51     -0.681563  7 O  s          
    16     -0.477396  2 H  s                 64      0.364976  8 H  s          
     7      0.205156  1 O  px                56     -0.196267  7 O  py         

 Vector   18  Occ=0.000000D+00  E= 2.123048D-01
              MO Center=  1.2D-02, -1.0D+00, -1.7D-01, r^2= 1.1D+01
   Bfn.  Coefficient  Atom+Function         Bfn.  Coefficient  Atom+Function  
  ----- ------------  ---------------      ----- ------------  ---------------
    40      0.977557  5 H  s                 27     -0.726393  4 O  s          
    69     -0.599491  9 H  s                 21     -0.580454  3 H  s          
    51      0.466673  7 O  s                  3      0.340323  1 O  s          
    32      0.273538  4 O  py                45      0.237528  6 H  s          
    64     -0.195396  8 H  s                  8      0.155281  1 O  py         

 Vector   19  Occ=0.000000D+00  E= 2.655368D-01
              MO Center=  1.9D+00,  1.2D+00,  3.0D-01, r^2= 6.3D+00
   Bfn.  Coefficient  Atom+Function         Bfn.  Coefficient  Atom+Function  
  ----- ------------  ---------------      ----- ------------  ---------------
    16      1.320707  2 H  s                 21     -1.264252  3 H  s          
    40     -0.603681  5 H  s                  8      0.562386  1 O  py         
    45      0.282528  6 H  s                  5      0.243785  1 O  py         
     7     -0.225427  1 O  px                32     -0.207613  4 O  py         
    27      0.168085  4 O  s          

 Vector   20  Occ=0.000000D+00  E= 2.700581D-01
              MO Center= -1.4D+00, -9.6D-02, -3.0D-01, r^2= 7.7D+00
   Bfn.  Coefficient  Atom+Function         Bfn.  Coefficient  Atom+Function  
  ----- ------------  ---------------      ----- ------------  ---------------
    69     -1.176420  9 H  s                 64      1.129478  8 H  s          
    40     -0.677753  5 H  s                 45      0.593678  6 H  s          
    55     -0.484501  7 O  px                16     -0.438124  2 H  s          
    32     -0.256988  4 O  py                57      0.235557  7 O  pz         
    52     -0.223423  7 O  px                 3      0.169308  1 O  s          

 Vector   21  Occ=0.000000D+00  E= 2.863361D-01
              MO Center= -1.0D-01, -8.0D-01,  1.8D-02, r^2= 6.3D+00
   Bfn.  Coefficient  Atom+Function         Bfn.  Coefficient  Atom+Function  
  ----- ------------  ---------------      ----- ------------  ---------------
    45      1.358128  6 H  s                 64     -0.973850  8 H  s          
    40     -0.845365  5 H  s                 69      0.524809  9 H  s          
    16     -0.476118  2 H  s                 32     -0.373820  4 O  py         
    33     -0.367768  4 O  pz                55      0.324481  7 O  px         
    27     -0.278410  4 O  s                 21      0.261258  3 H  s          

 Vector   22  Occ=0.000000D+00  E= 7.494061D-01
              MO Center=  8.4D-01, -1.2D-01,  1.1D-01, r^2= 5.1D+00
   Bfn.  Coefficient  Atom+Function         Bfn.  Coefficient  Atom+Function  
  ----- ------------  ---------------      ----- ------------  ---------------
    44      0.762570  6 H  s                 15      0.648852  2 H  s          
    20     -0.520931  3 H  s                 39     -0.488620  5 H  s          
    45     -0.426215  6 H  s                 16     -0.379972  2 H  s          
    63      0.325869  8 H  s                  8      0.317980  1 O  py         
    21      0.315575  3 H  s                 32     -0.294665  4 O  py         

 Vector   23  Occ=0.000000D+00  E= 7.895711D-01
              MO Center= -1.1D+00,  5.0D-01, -7.2D-02, r^2= 6.0D+00
   Bfn.  Coefficient  Atom+Function         Bfn.  Coefficient  Atom+Function  
  ----- ------------  ---------------      ----- ------------  ---------------
    63      0.838879  8 H  s                 68     -0.694252  9 H  s          
    64     -0.621009  8 H  s                 15     -0.515446  2 H  s          
    69      0.511896  9 H  s                 20      0.455079  3 H  s          
    16      0.391765  2 H  s                 21     -0.356668  3 H  s          
    55     -0.322295  7 O  px                39      0.216584  5 H  s          

 Vector   24  Occ=0.000000D+00  E= 8.289196D-01
              MO Center=  1.0D+00, -2.0D-01, -1.3D-02, r^2= 8.3D+00
   Bfn.  Coefficient  Atom+Function         Bfn.  Coefficient  Atom+Function  
  ----- ------------  ---------------      ----- ------------  ---------------
    39      0.871116  5 H  s                 20     -0.775068  3 H  s          
    40     -0.659514  5 H  s                 21      0.601694  3 H  s          
    68     -0.271196  9 H  s                 29      0.214053  4 O  py         
    42     -0.214779  5 H  py                23     -0.203096  3 H  py         
    69      0.202119  9 H  s                  5      0.177367  1 O  py         

 Vector   25  Occ=0.000000D+00  E= 8.407095D-01
              MO Center= -3.2D-01,  5.9D-02, -1.3D-01, r^2= 8.7D+00
   Bfn.  Coefficient  Atom+Function         Bfn.  Coefficient  Atom+Function  
  ----- ------------  ---------------      ----- ------------  ---------------
    68      0.640884  9 H  s                 39      0.581941  5 H  s          
    15      0.537208  2 H  s                 40     -0.467776  5 H  s          
    69     -0.437221  9 H  s                 16     -0.427479  2 H  s          
    63      0.408175  8 H  s                 20      0.342757  3 H  s          
    64     -0.274651  8 H  s                 21     -0.196409  3 H  s          


 center of mass
 --------------
 x =  -0.00833706 y =  -0.01805839 z =  -0.00046637

 moments of inertia (a.u.)
 ------------------
         420.769495861285         -44.930535013702         -12.457581211009
         -44.930535013702         607.741281766161         -97.369125551887
         -12.457581211009         -97.369125551887         971.943171911148

  Mulliken analysis of the total density
  --------------------------------------

    Atom       Charge   Shell Charges
 -----------   ------   -------------------------------------------------------
    1 O    8     8.33   2.00  0.83  0.84  2.81  1.84  0.01
    2 H    1     0.82   0.66  0.08  0.08
    3 H    1     0.84   0.68  0.07  0.09
    4 O    8     8.35   2.00  0.83  0.85  2.81  1.85  0.01
    5 H    1     0.84   0.68  0.07  0.08
    6 H    1     0.81   0.65  0.08  0.08
    7 O    8     8.34   2.00  0.83  0.84  2.81  1.84  0.01
    8 H    1     0.82   0.66  0.08  0.08
    9 H    1     0.84   0.68  0.07  0.09

       Multipole analysis of the density wrt the origin
       ------------------------------------------------

     L   x y z        total         open         nuclear
     -   - - -        -----         ----         -------
     0   0 0 0     -0.000000      0.000000     30.000000

     1   1 0 0      0.212249      0.000000     -0.000000
     1   0 1 0      0.452483      0.000000     -0.000000
     1   0 0 1      0.011848      0.000000      0.000000

     2   2 0 0     -8.955198      0.000000    328.844497
     2   1 1 0      0.018581      0.000000     25.296419
     2   1 0 1      2.724546      0.000000     10.736588
     2   0 2 0     -6.689510      0.000000    227.276718
     2   0 1 1     -0.374555      0.000000     53.362496
     2   0 0 2    -14.531786      0.000000     16.476653


 Parallel integral file used      31 records with       0 large values

                              NWChem Gradients Module
                              -----------------------



  wavefunction    =   RHF     



                         RHF ENERGY GRADIENTS

    atom               coordinates                        gradient
                 x          y          z           x          y          z
   1 O       2.542296   3.213146   0.835603   -0.034980   0.003180   0.003565
   2 H       4.101018   2.255307   0.483389    0.032956  -0.022214  -0.006940
   3 H       3.080223   4.923015   1.169859    0.003019   0.020501   0.004068
   4 O       1.973769  -3.203671  -0.878861    0.022327   0.001245  -0.035216
   5 H       1.705176  -5.003937  -0.987122   -0.000307  -0.020943  -0.004813
   6 H       1.053116  -2.632823   0.660450   -0.021122   0.017331   0.039841
   7 O      -4.572854  -0.132481   0.040081   -0.008445  -0.019925   0.026120
   8 H      -3.443232   0.497901  -1.298429    0.024720   0.010872  -0.028563
   9 H      -6.041992   0.944589  -0.002732   -0.018167   0.009952   0.001937

                 ----------------------------------------
                 |  Time  |  1-e(secs)   |  2-e(secs)   |
                 ----------------------------------------
                 |  CPU   |       0.01   |       0.53   |
                 ----------------------------------------
                 |  WALL  |       0.01   |       0.53   |
                 ----------------------------------------

 Task  times  cpu:        1.3s     wall:        1.3s


                                NWChem Input Module
                                -------------------


 Summary of allocated global arrays
-----------------------------------
  No active global arrays



                         GA Statistics for process    0
                         ------------------------------

       create   destroy   get      put      acc     scatter   gather  read&inc
calls:  249      249     8485     3832     3497        0        0      165     
number of processes/call 0.00e+00 0.00e+00 0.00e+00 0.00e+00 0.00e+00
bytes total:             1.41e+07 8.42e+06 2.03e+06 0.00e+00 0.00e+00 1.32e+03
bytes remote:            0.00e+00 0.00e+00 0.00e+00 0.00e+00 0.00e+00 0.00e+00
Max memory consumed for GA by this process: 539136 bytes

MA_summarize_allocated_blocks: starting scan ...
MA_summarize_allocated_blocks: scan completed: 0 heap blocks, 0 stack blocks
MA usage statistics:

	allocation statistics:
					      heap	     stack
					      ----	     -----
	current number of blocks	         0	         0
	maximum number of blocks	        18	        28
	current total bytes		         0	         0
	maximum total bytes		  57703112	  26171432
	maximum total K-bytes		     57704	     26172
	maximum total M-bytes		        58	        27


                                     CITATION
                                     --------
                Please cite the following reference when publishing
                           results obtained with NWChem:

          E. Aprà, E. J. Bylaska, W. A. de Jong, N. Govind, K. Kowalski,
       T. P. Straatsma, M. Valiev, H. J. J. van Dam, Y. Alexeev, J. Anchell,
       V. Anisimov, F. W. Aquino, R. Atta-Fynn, J. Autschbach, N. P. Bauman,
     J. C. Becca, D. E. Bernholdt, K. Bhaskaran-Nair, S. Bogatko, P. Borowski,
        J. Boschen, J. Brabec, A. Bruner, E. Cauët, Y. Chen, G. N. Chuev,
      C. J. Cramer, J. Daily, M. J. O. Deegan, T. H. Dunning Jr., M. Dupuis,
   K. G. Dyall, G. I. Fann, S. A. Fischer, A. Fonari, H. Früchtl, L. Gagliardi,
      J. Garza, N. Gawande, S. Ghosh, K. Glaesemann, A. W. Götz, J. Hammond,
       V. Helms, E. D. Hermes, K. Hirao, S. Hirata, M. Jacquelin, L. Jensen,
   B. G. Johnson, H. Jónsson, R. A. Kendall, M. Klemm, R. Kobayashi, V. Konkov,
      S. Krishnamoorthy, M. Krishnan, Z. Lin, R. D. Lins, R. J. Littlefield,
      A. J. Logsdail, K. Lopata, W. Ma, A. V. Marenich, J. Martin del Campo,
   D. Mejia-Rodriguez, J. E. Moore, J. M. Mullin, T. Nakajima, D. R. Nascimento,
    J. A. Nichols, P. J. Nichols, J. Nieplocha, A. Otero-de-la-Roza, B. Palmer,
    A. Panyala, T. Pirojsirikul, B. Peng, R. Peverati, J. Pittner, L. Pollack,
   R. M. Richard, P. Sadayappan, G. C. Schatz, W. A. Shelton, D. W. Silverstein,
   D. M. A. Smith, T. A. Soares, D. Song, M. Swart, H. L. Taylor, G. S. Thomas,
            V. Tipparaju, D. G. Truhlar, K. Tsemekhman, T. Van Voorhis,
     Á. Vázquez-Mayagoitia, P. Verma, O. Villa, A. Vishnu, K. D. Vogiatzis,
        D. Wang, J. H. Weare, M. J. Williamson, T. L. Windus, K. Woliński,
        A. T. Wong, Q. Wu, C. Yang, Q. Yu, M. Zacharias, Z. Zhang, Y. Zhao,
                                and R. J. Harrison
                        "NWChem: Past, present, and future
                         J. Chem. Phys. 152, 184102 (2020)
                               doi:10.1063/5.0004997

                                      AUTHORS
                                      -------
     E. Apra, E. J. Bylaska, N. Govind, K. Kowalski, M. Valiev, W. A. de Jong,
      T. P. Straatsma, H. J. J. van Dam, D. Wang, T. L. Windus, N. P. Bauman,
       A. Panyala, J. Hammond, J. Autschbach, K. Bhaskaran-Nair, J. Brabec,
    K. Lopata, S. A. Fischer, S. Krishnamoorthy, M. Jacquelin, W. Ma, M. Klemm,
       O. Villa, Y. Chen, V. Anisimov, F. Aquino, S. Hirata, M. T. Hackler,
           Eric Hermes, L. Jensen, J. E. Moore, J. C. Becca, V. Konjkov,
            D. Mejia-Rodriguez, T. Risthaus, M. Malagoli, A. Marenich,
   A. Otero-de-la-Roza, J. Mullin, P. Nichols, R. Peverati, J. Pittner, Y. Zhao,
        P.-D. Fan, A. Fonari, M. J. Williamson, R. J. Harrison, J. R. Rehr,
      M. Dupuis, D. Silverstein, D. M. A. Smith, J. Nieplocha, V. Tipparaju,
      M. Krishnan, B. E. Van Kuiken, A. Vazquez-Mayagoitia, M. Swart, Q. Wu,
   T. Van Voorhis, A. A. Auer, M. Nooijen, L. D. Crosby, E. Brown, G. Cisneros,
     G. I. Fann, H. Fruchtl, J. Garza, K. Hirao, R. A. Kendall, J. A. Nichols,
       K. Tsemekhman, K. Wolinski, J. Anchell, D. E. Bernholdt, P. Borowski,
       T. Clark, D. Clerc, H. Dachsel, M. J. O. Deegan, K. Dyall, D. Elwood,
      E. Glendening, M. Gutowski, A. C. Hess, J. Jaffe, B. G. Johnson, J. Ju,
        R. Kobayashi, R. Kutteh, Z. Lin, R. Littlefield, X. Long, B. Meng,
      T. Nakajima, S. Niu, L. Pollack, M. Rosing, K. Glaesemann, G. Sandrone,
      M. Stave, H. Taylor, G. Thomas, J. H. van Lenthe, A. T. Wong, Z. Zhang.

 Total times  cpu:        1.3s     wall:        1.3s
