 argument  1 = nwchem/input_4_15.nw



============================== echo of input deck ==============================
echo
memory 1000 mb
geometry noautosym noautoz
O -0.64071556 -0.48854013 1.6410419
H -0.19915392 0.37247798 1.5285638
H -1.54433112 -0.32408724 1.298356
O 0.57630762 -1.69154092 -0.42866929
H 0.43417462 -2.64420081 -0.48595869
H 0.08911917 -1.3894609 0.38589939
O 2.81159896 -0.10395953 -0.18689424
H 3.46294039 -0.4517338 0.43482057
H 2.1584952 -0.82915775 -0.30211113
O -2.88801599 -0.0663369 0.05761427
H -2.29024563 0.26724676 -0.65069518
H -3.66545029 0.50362404 0.03495814
end
basis spherical
 * library cc-pvdz
end
task scf gradient
================================================================================


                                         
                                         


             Northwest Computational Chemistry Package (NWChem) 7.0.2
             --------------------------------------------------------


                    Environmental Molecular Sciences Laboratory
                       Pacific Northwest National Laboratory
                                Richland, WA 99352

                              Copyright (c) 1994-2020
                       Pacific Northwest National Laboratory
                            Battelle Memorial Institute

             NWChem is an open-source computational chemistry package
                        distributed under the terms of the
                      Educational Community License (ECL) 2.0
             A copy of the license is included with this distribution
                              in the LICENSE.TXT file

                                  ACKNOWLEDGMENT
                                  --------------

            This software and its documentation were developed at the
            EMSL at Pacific Northwest National Laboratory, a multiprogram
            national laboratory, operated for the U.S. Department of Energy
            by Battelle under Contract Number DE-AC05-76RL01830. Support
            for this work was provided by the Department of Energy Office
            of Biological and Environmental Research, Office of Basic
            Energy Sciences, and the Office of Advanced Scientific Computing.


           Job information
           ---------------

    hostname        = pop-os
    program         = nwchem
    date            = Tue Jul  6 14:06:50 2021

    compiled        = Wed_Jan_06_19:48:08_2021
    source          = /build/nwchem-ksKH2r/nwchem-7.0.2
    nwchem branch   = 7.0.2
    nwchem revision = N/A
    ga revision     = 5.7.1
    use scalapack   = T
    input           = nwchem/input_4_15.nw
    prefix          = input_4_15.
    data base       = ./input_4_15.db
    status          = startup
    nproc           =        1
    time left       =     -1s



           Memory information
           ------------------

    heap     =   32767994 doubles =    250.0 Mbytes
    stack    =   32767999 doubles =    250.0 Mbytes
    global   =   65536000 doubles =    500.0 Mbytes (distinct from heap & stack)
    total    =  131071993 doubles =   1000.0 Mbytes
    verify   = yes
    hardfail = no 


           Directory information
           ---------------------

  0 permanent = .
  0 scratch   = .




                                NWChem Input Module
                                -------------------



 Scaling coordinates for geometry "geometry" by  1.889725989
 (inverse scale =  0.529177249)



                             Geometry "geometry" -> ""
                             -------------------------

 Output coordinates in angstroms (scale by  1.889725989 to convert to a.u.)

  No.       Tag          Charge          X              Y              Z
 ---- ---------------- ---------- -------------- -------------- --------------
    1 O                    8.0000    -0.57368928     0.09391766     1.36832755
    2 H                    1.0000    -0.13212764     0.95493577     1.25584945
    3 H                    1.0000    -1.47730484     0.25837055     1.02564165
    4 O                    8.0000     0.64333390    -1.10908313    -0.70138364
    5 H                    1.0000     0.50120090    -2.06174302    -0.75867304
    6 H                    1.0000     0.15614545    -0.80700311     0.11318504
    7 O                    8.0000     2.87862524     0.47849826    -0.45960859
    8 H                    1.0000     3.52996667     0.13072399     0.16210622
    9 H                    1.0000     2.22552148    -0.24669996    -0.57482548
   10 O                    8.0000    -2.82098971     0.51612089    -0.21510008
   11 H                    1.0000    -2.22321935     0.84970455    -0.92340953
   12 H                    1.0000    -3.59842401     1.08608183    -0.23775621

      Atomic Mass 
      ----------- 

      O                 15.994910
      H                  1.007825


 Effective nuclear repulsion energy (a.u.)     131.0633689451

            Nuclear Dipole moment (a.u.) 
            ----------------------------
        X                 Y               Z
 ---------------- ---------------- ----------------
    -0.0000000000    -0.0000000000     0.0000000000


            XYZ format geometry
            -------------------
    12
 geometry
 O                    -0.57368928     0.09391766     1.36832755
 H                    -0.13212764     0.95493577     1.25584945
 H                    -1.47730484     0.25837055     1.02564165
 O                     0.64333390    -1.10908313    -0.70138364
 H                     0.50120090    -2.06174302    -0.75867304
 H                     0.15614545    -0.80700311     0.11318504
 O                     2.87862524     0.47849826    -0.45960859
 H                     3.52996667     0.13072399     0.16210622
 H                     2.22552148    -0.24669996    -0.57482548
 O                    -2.82098971     0.51612089    -0.21510008
 H                    -2.22321935     0.84970455    -0.92340953
 H                    -3.59842401     1.08608183    -0.23775621

 ==============================================================================
                                internuclear distances
 ------------------------------------------------------------------------------
       center one      |      center two      | atomic units |  angstroms
 ------------------------------------------------------------------------------
    2 H                |   1 O                |     1.84089  |     0.97416
    3 H                |   1 O                |     1.85251  |     0.98031
    5 H                |   4 O                |     1.82341  |     0.96491
    6 H                |   4 O                |     1.88227  |     0.99606
    8 H                |   7 O                |     1.82407  |     0.96526
    9 H                |   7 O                |     1.85707  |     0.98272
   11 H                |  10 O                |     1.86146  |     0.98504
   12 H                |  10 O                |     1.82216  |     0.96425
 ------------------------------------------------------------------------------
                         number of included internuclear distances:          8
 ==============================================================================



 ==============================================================================
                                 internuclear angles
 ------------------------------------------------------------------------------
        center 1       |       center 2       |       center 3       |  degrees
 ------------------------------------------------------------------------------
    2 H                |   1 O                |   3 H                |   103.25
    5 H                |   4 O                |   6 H                |   106.02
    8 H                |   7 O                |   9 H                |   104.96
   11 H                |  10 O                |  12 H                |   105.80
 ------------------------------------------------------------------------------
                            number of included internuclear angles:          4
 ==============================================================================





 Summary of "ao basis" -> "" (spherical)
 ------------------------------------------------------------------------------
       Tag                 Description            Shells   Functions and Types
 ---------------- ------------------------------  ------  ---------------------
 *                          cc-pvdz                   on all atoms 


                      Basis "ao basis" -> "ao basis" (spherical)
                      -----
  O (Oxygen)
  ----------
            Exponent  Coefficients 
       -------------- ---------------------------------------------------------
  1 S  1.17200000E+04  0.000710
  1 S  1.75900000E+03  0.005470
  1 S  4.00800000E+02  0.027837
  1 S  1.13700000E+02  0.104800
  1 S  3.70300000E+01  0.283062
  1 S  1.32700000E+01  0.448719
  1 S  5.02500000E+00  0.270952
  1 S  1.01300000E+00  0.015458

  2 S  1.17200000E+04 -0.000160
  2 S  1.75900000E+03 -0.001263
  2 S  4.00800000E+02 -0.006267
  2 S  1.13700000E+02 -0.025716
  2 S  3.70300000E+01 -0.070924
  2 S  1.32700000E+01 -0.165411
  2 S  5.02500000E+00 -0.116955
  2 S  1.01300000E+00  0.557368

  3 S  3.02300000E-01  1.000000

  4 P  1.77000000E+01  0.043018
  4 P  3.85400000E+00  0.228913
  4 P  1.04600000E+00  0.508728

  5 P  2.75300000E-01  1.000000

  6 D  1.18500000E+00  1.000000

  H (Hydrogen)
  ------------
            Exponent  Coefficients 
       -------------- ---------------------------------------------------------
  1 S  1.30100000E+01  0.019685
  1 S  1.96200000E+00  0.137977
  1 S  4.44600000E-01  0.478148

  2 S  1.22000000E-01  1.000000

  3 P  7.27000000E-01  1.000000



 Summary of "ao basis" -> "ao basis" (spherical)
 ------------------------------------------------------------------------------
       Tag                 Description            Shells   Functions and Types
 ---------------- ------------------------------  ------  ---------------------
 O                          cc-pvdz                  6       14   3s2p1d
 H                          cc-pvdz                  3        5   2s1p


                                 NWChem SCF Module
                                 -----------------



  ao basis        = "ao basis"
  functions       =    96
  atoms           =    12
  closed shells   =    20
  open shells     =     0
  charge          =   0.00
  wavefunction    = RHF 
  input vectors   = atomic
  output vectors  = ./input_4_15.movecs
  use symmetry    = F
  symmetry adapt  = F


 Summary of "ao basis" -> "ao basis" (spherical)
 ------------------------------------------------------------------------------
       Tag                 Description            Shells   Functions and Types
 ---------------- ------------------------------  ------  ---------------------
 O                          cc-pvdz                  6       14   3s2p1d
 H                          cc-pvdz                  3        5   2s1p



 Forming initial guess at       0.1s


      Superposition of Atomic Density Guess
      -------------------------------------

 Sum of atomic energies:        -303.04891642

      Non-variational initial energy
      ------------------------------

 Total energy =    -303.764312
 1-e energy   =    -675.907258
 2-e energy   =     241.079577
 HOMO         =      -0.459919
 LUMO         =       0.049486


 Starting SCF solution at       0.4s



 ----------------------------------------------
         Quadratically convergent ROHF

 Convergence threshold     :          1.000E-04
 Maximum no. of iterations :           30
 Final Fock-matrix accuracy:          1.000E-07
 ----------------------------------------------


 Integral file          = ./input_4_15.aoints.0
 Record size in doubles =  65536        No. of integs per rec  =  43688
 Max. records in memory =    339        Max. records in file   = 400713
 No. of bits per label  =      8        No. of bits per value  =     64


 #quartets = 4.276D+05 #integrals = 4.945D+06 #direct =  0.0% #cached =100.0%


              iter       energy          gnorm     gmax       time
             ----- ------------------- --------- --------- --------
                 1     -304.0125554935  1.52D+00  2.49D-01      1.4
                 2     -304.1206572819  3.32D-01  5.91D-02      1.5
                 3     -304.1295986536  2.75D-02  3.43D-03      1.7
                 4     -304.1296676953  5.56D-04  1.01D-04      1.9
                 5     -304.1296677200  2.52D-06  4.15D-07      2.3


       Final RHF  results 
       ------------------ 

         Total SCF energy =   -304.129667720010
      One-electron energy =   -681.258576503358
      Two-electron energy =    246.065539838289
 Nuclear repulsion energy =    131.063368945059

        Time for solution =      1.8s


             Final eigenvalues
             -----------------

              1      
    1  -20.5995
    2  -20.5672
    3  -20.5381
    4  -20.5023
    5   -1.3763
    6   -1.3488
    7   -1.3166
    8   -1.2816
    9   -0.7417
   10   -0.7077
   11   -0.6947
   12   -0.6577
   13   -0.6138
   14   -0.5867
   15   -0.5587
   16   -0.5319
   17   -0.5220
   18   -0.4965
   19   -0.4754
   20   -0.4466
   21    0.1460
   22    0.1931
   23    0.2277
   24    0.2329
   25    0.2467
   26    0.3435
   27    0.3894
   28    0.4326
   29    0.7059
   30    0.7531

                       ROHF Final Molecular Orbital Analysis
                       -------------------------------------

 Vector    5  Occ=2.000000D+00  E=-1.376330D+00
              MO Center= -2.7D+00,  6.1D-01, -2.1D-01, r^2= 9.6D-01
   Bfn.  Coefficient  Atom+Function         Bfn.  Coefficient  Atom+Function  
  ----- ------------  ---------------      ----- ------------  ---------------
    74      0.430914  10 O  s                75      0.380410  10 O  s         
    92      0.181124  12 H  s                87      0.171268  11 H  s         

 Vector    6  Occ=2.000000D+00  E=-1.348779D+00
              MO Center= -6.6D-01,  1.3D-01,  1.0D+00, r^2= 1.5D+00
   Bfn.  Coefficient  Atom+Function         Bfn.  Coefficient  Atom+Function  
  ----- ------------  ---------------      ----- ------------  ---------------
     2      0.409862   1 O  s                 3      0.367603   1 O  s         
    15      0.170162   2 H  s                20      0.159770   3 H  s         

 Vector    7  Occ=2.000000D+00  E=-1.316589D+00
              MO Center=  5.5D-01, -1.0D+00, -4.4D-01, r^2= 1.4D+00
   Bfn.  Coefficient  Atom+Function         Bfn.  Coefficient  Atom+Function  
  ----- ------------  ---------------      ----- ------------  ---------------
    26      0.415282   4 O  s                27      0.378090   4 O  s         
    39      0.177084   5 H  s                44      0.151055   6 H  s         

 Vector    8  Occ=2.000000D+00  E=-1.281551D+00
              MO Center=  2.8D+00,  2.7D-01, -3.9D-01, r^2= 8.4D-01
   Bfn.  Coefficient  Atom+Function         Bfn.  Coefficient  Atom+Function  
  ----- ------------  ---------------      ----- ------------  ---------------
    50      0.434245   7 O  s                51      0.385394   7 O  s         
    63      0.188947   8 H  s                68      0.170629   9 H  s         

 Vector    9  Occ=2.000000D+00  E=-7.416943D-01
              MO Center= -2.7D+00,  6.4D-01, -1.9D-01, r^2= 1.4D+00
   Bfn.  Coefficient  Atom+Function         Bfn.  Coefficient  Atom+Function  
  ----- ------------  ---------------      ----- ------------  ---------------
    76      0.431894  10 O  px               92     -0.324685  12 H  s         
    87      0.279441  11 H  s                79      0.206997  10 O  px        
    78     -0.156497  10 O  pz        

 Vector   10  Occ=2.000000D+00  E=-7.076976D-01
              MO Center= -9.0D-01,  2.3D-01,  9.1D-01, r^2= 2.1D+00
   Bfn.  Coefficient  Atom+Function         Bfn.  Coefficient  Atom+Function  
  ----- ------------  ---------------      ----- ------------  ---------------
     4      0.402035   1 O  px               20     -0.287231   3 H  s         
    15      0.263770   2 H  s                 7      0.196662   1 O  px        
    78     -0.179412  10 O  pz                5      0.161262   1 O  py        

 Vector   11  Occ=2.000000D+00  E=-6.947279D-01
              MO Center=  4.1D-01, -9.7D-01, -2.9D-01, r^2= 1.9D+00
   Bfn.  Coefficient  Atom+Function         Bfn.  Coefficient  Atom+Function  
  ----- ------------  ---------------      ----- ------------  ---------------
    29      0.358228   4 O  py               39     -0.296038   5 H  s         
    44      0.276212   6 H  s                30      0.245085   4 O  pz        
    32      0.169282   4 O  py                5     -0.166068   1 O  py        

 Vector   12  Occ=2.000000D+00  E=-6.576709D-01
              MO Center=  2.5D+00,  8.6D-02, -3.7D-01, r^2= 1.9D+00
   Bfn.  Coefficient  Atom+Function         Bfn.  Coefficient  Atom+Function  
  ----- ------------  ---------------      ----- ------------  ---------------
    52      0.374324   7 O  px               68     -0.294585   9 H  s         
    63      0.291953   8 H  s                54      0.203180   7 O  pz        
    55      0.174160   7 O  px               28     -0.161770   4 O  px        

 Vector   13  Occ=2.000000D+00  E=-6.138156D-01
              MO Center= -2.0D+00,  3.6D-01,  2.6D-01, r^2= 2.7D+00
   Bfn.  Coefficient  Atom+Function         Bfn.  Coefficient  Atom+Function  
  ----- ------------  ---------------      ----- ------------  ---------------
    78     -0.322809  10 O  pz               77      0.306982  10 O  py        
     5     -0.265376   1 O  py               75     -0.265531  10 O  s         
    81     -0.215529  10 O  pz                3      0.199234   1 O  s         
    80      0.198593  10 O  py               87      0.184152  11 H  s         
    15     -0.176050   2 H  s                 8     -0.165417   1 O  py        

 Vector   14  Occ=2.000000D+00  E=-5.866985D-01
              MO Center= -1.0D+00,  3.3D-02,  5.2D-01, r^2= 3.8D+00
   Bfn.  Coefficient  Atom+Function         Bfn.  Coefficient  Atom+Function  
  ----- ------------  ---------------      ----- ------------  ---------------
     5      0.317620   1 O  py               77      0.316931  10 O  py        
    80      0.224509  10 O  py                8      0.212022   1 O  py        
     3     -0.209329   1 O  s                 4     -0.201458   1 O  px        
    75     -0.187375  10 O  s                29      0.171664   4 O  py        
    20      0.161191   3 H  s         

 Vector   15  Occ=2.000000D+00  E=-5.586959D-01
              MO Center=  5.7D-01, -4.7D-01, -2.3D-01, r^2= 4.1D+00
   Bfn.  Coefficient  Atom+Function         Bfn.  Coefficient  Atom+Function  
  ----- ------------  ---------------      ----- ------------  ---------------
    27      0.248280   4 O  s                29      0.244607   4 O  py        
     6      0.232504   1 O  pz               28      0.232047   4 O  px        
    30     -0.225996   4 O  pz                9      0.177976   1 O  pz        
    39     -0.172993   5 H  s                31      0.161527   4 O  px        
    63      0.158968   8 H  s                33     -0.157350   4 O  pz        

 Vector   16  Occ=2.000000D+00  E=-5.318643D-01
              MO Center= -2.1D+00,  4.4D-01, -3.9D-02, r^2= 3.3D+00
   Bfn.  Coefficient  Atom+Function         Bfn.  Coefficient  Atom+Function  
  ----- ------------  ---------------      ----- ------------  ---------------
    78      0.384426  10 O  pz               77      0.328682  10 O  py        
    81      0.294580  10 O  pz               80      0.263683  10 O  py        
    76      0.257071  10 O  px               79      0.199551  10 O  px        

 Vector   17  Occ=2.000000D+00  E=-5.220207D-01
              MO Center=  1.9D+00,  1.6D-01, -3.5D-01, r^2= 3.7D+00
   Bfn.  Coefficient  Atom+Function         Bfn.  Coefficient  Atom+Function  
  ----- ------------  ---------------      ----- ------------  ---------------
    53      0.405587   7 O  py               56      0.284781   7 O  py        
    51      0.267021   7 O  s                30     -0.187852   4 O  pz        
    54     -0.188130   7 O  pz                6      0.183348   1 O  pz        
    68     -0.165055   9 H  s                63     -0.162750   8 H  s         

 Vector   18  Occ=2.000000D+00  E=-4.965115D-01
              MO Center= -2.5D-01, -2.0D-01,  7.9D-01, r^2= 2.1D+00
   Bfn.  Coefficient  Atom+Function         Bfn.  Coefficient  Atom+Function  
  ----- ------------  ---------------      ----- ------------  ---------------
     6      0.484460   1 O  pz                9      0.389554   1 O  pz        
    30      0.312854   4 O  pz               33      0.228843   4 O  pz        
     4     -0.175265   1 O  px                5      0.173602   1 O  py        

 Vector   19  Occ=2.000000D+00  E=-4.754322D-01
              MO Center=  1.0D+00, -7.7D-01, -5.8D-01, r^2= 2.0D+00
   Bfn.  Coefficient  Atom+Function         Bfn.  Coefficient  Atom+Function  
  ----- ------------  ---------------      ----- ------------  ---------------
    28      0.495790   4 O  px               31      0.391496   4 O  px        
    53      0.258795   7 O  py               30      0.246148   4 O  pz        
    33      0.205165   4 O  pz               56      0.187558   7 O  py        

 Vector   20  Occ=2.000000D+00  E=-4.465867D-01
              MO Center=  2.9D+00,  4.4D-01, -4.6D-01, r^2= 7.0D-01
   Bfn.  Coefficient  Atom+Function         Bfn.  Coefficient  Atom+Function  
  ----- ------------  ---------------      ----- ------------  ---------------
    54      0.478868   7 O  pz               57      0.382383   7 O  pz        
    52     -0.341696   7 O  px               55     -0.279662   7 O  px        
    53      0.201941   7 O  py               56      0.160541   7 O  py        

 Vector   21  Occ=0.000000D+00  E= 1.460096D-01
              MO Center= -2.1D+00,  8.5D-01, -3.2D-01, r^2= 5.5D+00
   Bfn.  Coefficient  Atom+Function         Bfn.  Coefficient  Atom+Function  
  ----- ------------  ---------------      ----- ------------  ---------------
    75      0.842801  10 O  s                93     -0.690762  12 H  s         
    88     -0.674459  11 H  s                16     -0.458858   2 H  s         
     3      0.350875   1 O  s                40     -0.269019   5 H  s         
    80      0.218944  10 O  py               27      0.217739   4 O  s         
    81     -0.161753  10 O  pz        

 Vector   22  Occ=0.000000D+00  E= 1.931476D-01
              MO Center= -3.7D-01, -1.5D-01, -4.6D-02, r^2= 1.1D+01
   Bfn.  Coefficient  Atom+Function         Bfn.  Coefficient  Atom+Function  
  ----- ------------  ---------------      ----- ------------  ---------------
    93     -0.797430  12 H  s                40      0.788169   5 H  s         
    16      0.629686   2 H  s                27     -0.506146   4 O  s         
    64      0.469811   8 H  s                75      0.436782  10 O  s         
     3     -0.385469   1 O  s                51     -0.370782   7 O  s         
    32      0.223334   4 O  py               79     -0.208081  10 O  px        

 Vector   23  Occ=0.000000D+00  E= 2.277463D-01
              MO Center= -1.2D-01, -4.6D-01,  1.0D-01, r^2= 8.0D+00
   Bfn.  Coefficient  Atom+Function         Bfn.  Coefficient  Atom+Function  
  ----- ------------  ---------------      ----- ------------  ---------------
    40     -1.012317   5 H  s                16      0.969452   2 H  s         
    27      0.584980   4 O  s                93     -0.522808  12 H  s         
     3     -0.494142   1 O  s                32     -0.326299   4 O  py        
    88      0.327348  11 H  s                 8     -0.287029   1 O  py        
    79     -0.192717  10 O  px               29     -0.166051   4 O  py        

 Vector   24  Occ=0.000000D+00  E= 2.329102D-01
              MO Center= -7.8D-01,  6.5D-01, -3.9D-01, r^2= 1.1D+01
   Bfn.  Coefficient  Atom+Function         Bfn.  Coefficient  Atom+Function  
  ----- ------------  ---------------      ----- ------------  ---------------
    88      1.233752  11 H  s                93     -1.001088  12 H  s         
    64     -0.732028   8 H  s                79     -0.442199  10 O  px        
    51      0.428003   7 O  s                16     -0.356263   2 H  s         
    40      0.291876   5 H  s                81      0.285930  10 O  pz        
     3      0.267773   1 O  s                76     -0.186268  10 O  px        

 Vector   25  Occ=0.000000D+00  E= 2.467413D-01
              MO Center=  1.6D+00,  1.6D-01,  1.1D-01, r^2= 1.0D+01
   Bfn.  Coefficient  Atom+Function         Bfn.  Coefficient  Atom+Function  
  ----- ------------  ---------------      ----- ------------  ---------------
    64      1.123675   8 H  s                88      0.764130  11 H  s         
    51     -0.632395   7 O  s                16     -0.488829   2 H  s         
    40     -0.489138   5 H  s                 3      0.414597   1 O  s         
    93     -0.381251  12 H  s                21     -0.327564   3 H  s         
    55     -0.245685   7 O  px               57     -0.230028   7 O  pz        

 Vector   26  Occ=0.000000D+00  E= 3.434685D-01
              MO Center= -1.4D+00,  1.1D-01,  9.2D-01, r^2= 4.2D+00
   Bfn.  Coefficient  Atom+Function         Bfn.  Coefficient  Atom+Function  
  ----- ------------  ---------------      ----- ------------  ---------------
    21      1.809057   3 H  s                16     -0.996831   2 H  s         
     3     -0.584705   1 O  s                45      0.579022   6 H  s         
     7      0.527778   1 O  px               40     -0.394891   5 H  s         
    93     -0.366242  12 H  s                79     -0.241124  10 O  px        
    88     -0.237050  11 H  s                81     -0.230933  10 O  pz        

 Vector   27  Occ=0.000000D+00  E= 3.894172D-01
              MO Center=  1.4D+00, -4.9D-01, -2.1D-01, r^2= 5.4D+00
   Bfn.  Coefficient  Atom+Function         Bfn.  Coefficient  Atom+Function  
  ----- ------------  ---------------      ----- ------------  ---------------
    69      1.472044   9 H  s                45      1.165975   6 H  s         
    40     -0.820692   5 H  s                64     -0.792368   8 H  s         
    21     -0.533489   3 H  s                27     -0.441770   4 O  s         
    32     -0.442518   4 O  py               55      0.433029   7 O  px        
    51     -0.368057   7 O  s                33     -0.280062   4 O  pz        

 Vector   28  Occ=0.000000D+00  E= 4.326452D-01
              MO Center=  6.4D-01, -6.0D-01, -2.1D-02, r^2= 5.6D+00
   Bfn.  Coefficient  Atom+Function         Bfn.  Coefficient  Atom+Function  
  ----- ------------  ---------------      ----- ------------  ---------------
    45      1.907310   6 H  s                69     -1.560795   9 H  s         
    21     -0.858427   3 H  s                64      0.553880   8 H  s         
    51      0.520403   7 O  s                27     -0.465664   4 O  s         
    31      0.425715   4 O  px               40     -0.388061   5 H  s         
    33     -0.378611   4 O  pz                7     -0.372680   1 O  px        

 Vector   29  Occ=0.000000D+00  E= 7.058557D-01
              MO Center= -1.7D+00,  3.4D-01,  2.9D-01, r^2= 3.9D+00
   Bfn.  Coefficient  Atom+Function         Bfn.  Coefficient  Atom+Function  
  ----- ------------  ---------------      ----- ------------  ---------------
    21      0.795730   3 H  s                87      0.697746  11 H  s         
    20     -0.652058   3 H  s                92     -0.622875  12 H  s         
    88     -0.507344  11 H  s                79     -0.432242  10 O  px        
    15      0.424448   2 H  s                93      0.373755  12 H  s         
    44      0.366616   6 H  s                45     -0.342865   6 H  s         

 Vector   30  Occ=0.000000D+00  E= 7.530758D-01
              MO Center= -4.3D-01,  1.1D-01,  4.7D-01, r^2= 4.6D+00
   Bfn.  Coefficient  Atom+Function         Bfn.  Coefficient  Atom+Function  
  ----- ------------  ---------------      ----- ------------  ---------------
    15      0.808036   2 H  s                44     -0.609043   6 H  s         
    16     -0.592893   2 H  s                45      0.583827   6 H  s         
    92      0.466167  12 H  s                20     -0.444017   3 H  s         
    68      0.364876   9 H  s                21      0.348745   3 H  s         
    69     -0.346118   9 H  s                93     -0.323812  12 H  s         


 center of mass
 --------------
 x =   0.02648330 y =  -0.00427509 z =  -0.00161562

 moments of inertia (a.u.)
 ------------------
         293.232723566877          75.491203932474         110.951738881264
          75.491203932474        1272.114016565029         -40.273373256285
         110.951738881264         -40.273373256285        1233.570769766224

  Mulliken analysis of the total density
  --------------------------------------

    Atom       Charge   Shell Charges
 -----------   ------   -------------------------------------------------------
    1 O    8     8.36   2.00  0.83  0.84  2.83  1.84  0.01
    2 H    1     0.82   0.67  0.07  0.08
    3 H    1     0.80   0.63  0.08  0.09
    4 O    8     8.39   2.00  0.82  0.85  2.83  1.87  0.01
    5 H    1     0.84   0.68  0.07  0.08
    6 H    1     0.79   0.61  0.09  0.09
    7 O    8     8.38   2.00  0.83  0.84  2.82  1.88  0.01
    8 H    1     0.86   0.69  0.08  0.08
    9 H    1     0.81   0.63  0.09  0.09
   10 O    8     8.32   2.00  0.83  0.84  2.82  1.82  0.01
   11 H    1     0.81   0.66  0.07  0.08
   12 H    1     0.82   0.67  0.06  0.08

       Multipole analysis of the density wrt the origin
       ------------------------------------------------

     L   x y z        total         open         nuclear
     -   - - -        -----         ----         -------
     0   0 0 0     -0.000000      0.000000     40.000000

     1   1 0 0     -1.491295      0.000000     -0.000000
     1   0 1 0      0.204631      0.000000     -0.000000
     1   0 0 1      0.125002      0.000000      0.000000

     2   2 0 0    -14.901037      0.000000    620.223000
     2   1 1 0     -8.184354      0.000000    -51.136316
     2   1 0 1      5.596259      0.000000    -55.215708
     2   0 2 0    -14.050363      0.000000     77.613638
     2   0 1 1      1.031947      0.000000     23.786711
     2   0 0 2    -21.357778      0.000000     90.910546


 Parallel integral file used     114 records with       0 large values

                              NWChem Gradients Module
                              -----------------------



  wavefunction    =   RHF     



                         RHF ENERGY GRADIENTS

    atom               coordinates                        gradient
                 x          y          z           x          y          z
   1 O      -1.084116   0.177479   2.585764    0.014136  -0.033349   0.008757
   2 H      -0.249685   1.804567   2.373211    0.009327   0.024269  -0.005206
   3 H      -2.791701   0.488250   1.938182   -0.022383   0.006601  -0.011671
   4 O       1.215725  -2.095863  -1.325423    0.020962   0.015365  -0.021812
   5 H       0.947132  -3.896129  -1.433684   -0.002533  -0.020617  -0.002105
   6 H       0.295072  -1.525015   0.213889   -0.018381   0.012644   0.028410
   7 O       5.439813   0.904231  -0.868534    0.001754   0.025975  -0.011967
   8 H       6.670670   0.247033   0.306336    0.014949  -0.006794   0.013817
   9 H       4.205626  -0.466195  -1.086263   -0.019126  -0.023209  -0.001730
  10 O      -5.330898   0.975327  -0.406480   -0.008190  -0.024062   0.026828
  11 H      -4.201275   1.605709  -1.744991    0.025400   0.012747  -0.024012
  12 H      -6.800035   2.052397  -0.449294   -0.015914   0.010429   0.000693

                 ----------------------------------------
                 |  Time  |  1-e(secs)   |  2-e(secs)   |
                 ----------------------------------------
                 |  CPU   |       0.01   |       1.25   |
                 ----------------------------------------
                 |  WALL  |       0.01   |       1.25   |
                 ----------------------------------------

 Task  times  cpu:        3.6s     wall:        3.6s


                                NWChem Input Module
                                -------------------


 Summary of allocated global arrays
-----------------------------------
  No active global arrays



                         GA Statistics for process    0
                         ------------------------------

       create   destroy   get      put      acc     scatter   gather  read&inc
calls:  268      268     1.11e+04 5676     4684        0        0      166     
number of processes/call 0.00e+00 0.00e+00 0.00e+00 0.00e+00 0.00e+00
bytes total:             2.58e+07 1.54e+07 3.80e+06 0.00e+00 0.00e+00 1.33e+03
bytes remote:            0.00e+00 0.00e+00 0.00e+00 0.00e+00 0.00e+00 0.00e+00
Max memory consumed for GA by this process: 958464 bytes

MA_summarize_allocated_blocks: starting scan ...
MA_summarize_allocated_blocks: scan completed: 0 heap blocks, 0 stack blocks
MA usage statistics:

	allocation statistics:
					      heap	     stack
					      ----	     -----
	current number of blocks	         0	         0
	maximum number of blocks	        18	        28
	current total bytes		         0	         0
	maximum total bytes		 177770864	  26178712
	maximum total K-bytes		    177771	     26179
	maximum total M-bytes		       178	        27


                                     CITATION
                                     --------
                Please cite the following reference when publishing
                           results obtained with NWChem:

          E. Aprà, E. J. Bylaska, W. A. de Jong, N. Govind, K. Kowalski,
       T. P. Straatsma, M. Valiev, H. J. J. van Dam, Y. Alexeev, J. Anchell,
       V. Anisimov, F. W. Aquino, R. Atta-Fynn, J. Autschbach, N. P. Bauman,
     J. C. Becca, D. E. Bernholdt, K. Bhaskaran-Nair, S. Bogatko, P. Borowski,
        J. Boschen, J. Brabec, A. Bruner, E. Cauët, Y. Chen, G. N. Chuev,
      C. J. Cramer, J. Daily, M. J. O. Deegan, T. H. Dunning Jr., M. Dupuis,
   K. G. Dyall, G. I. Fann, S. A. Fischer, A. Fonari, H. Früchtl, L. Gagliardi,
      J. Garza, N. Gawande, S. Ghosh, K. Glaesemann, A. W. Götz, J. Hammond,
       V. Helms, E. D. Hermes, K. Hirao, S. Hirata, M. Jacquelin, L. Jensen,
   B. G. Johnson, H. Jónsson, R. A. Kendall, M. Klemm, R. Kobayashi, V. Konkov,
      S. Krishnamoorthy, M. Krishnan, Z. Lin, R. D. Lins, R. J. Littlefield,
      A. J. Logsdail, K. Lopata, W. Ma, A. V. Marenich, J. Martin del Campo,
   D. Mejia-Rodriguez, J. E. Moore, J. M. Mullin, T. Nakajima, D. R. Nascimento,
    J. A. Nichols, P. J. Nichols, J. Nieplocha, A. Otero-de-la-Roza, B. Palmer,
    A. Panyala, T. Pirojsirikul, B. Peng, R. Peverati, J. Pittner, L. Pollack,
   R. M. Richard, P. Sadayappan, G. C. Schatz, W. A. Shelton, D. W. Silverstein,
   D. M. A. Smith, T. A. Soares, D. Song, M. Swart, H. L. Taylor, G. S. Thomas,
            V. Tipparaju, D. G. Truhlar, K. Tsemekhman, T. Van Voorhis,
     Á. Vázquez-Mayagoitia, P. Verma, O. Villa, A. Vishnu, K. D. Vogiatzis,
        D. Wang, J. H. Weare, M. J. Williamson, T. L. Windus, K. Woliński,
        A. T. Wong, Q. Wu, C. Yang, Q. Yu, M. Zacharias, Z. Zhang, Y. Zhao,
                                and R. J. Harrison
                        "NWChem: Past, present, and future
                         J. Chem. Phys. 152, 184102 (2020)
                               doi:10.1063/5.0004997

                                      AUTHORS
                                      -------
     E. Apra, E. J. Bylaska, N. Govind, K. Kowalski, M. Valiev, W. A. de Jong,
      T. P. Straatsma, H. J. J. van Dam, D. Wang, T. L. Windus, N. P. Bauman,
       A. Panyala, J. Hammond, J. Autschbach, K. Bhaskaran-Nair, J. Brabec,
    K. Lopata, S. A. Fischer, S. Krishnamoorthy, M. Jacquelin, W. Ma, M. Klemm,
       O. Villa, Y. Chen, V. Anisimov, F. Aquino, S. Hirata, M. T. Hackler,
           Eric Hermes, L. Jensen, J. E. Moore, J. C. Becca, V. Konjkov,
            D. Mejia-Rodriguez, T. Risthaus, M. Malagoli, A. Marenich,
   A. Otero-de-la-Roza, J. Mullin, P. Nichols, R. Peverati, J. Pittner, Y. Zhao,
        P.-D. Fan, A. Fonari, M. J. Williamson, R. J. Harrison, J. R. Rehr,
      M. Dupuis, D. Silverstein, D. M. A. Smith, J. Nieplocha, V. Tipparaju,
      M. Krishnan, B. E. Van Kuiken, A. Vazquez-Mayagoitia, M. Swart, Q. Wu,
   T. Van Voorhis, A. A. Auer, M. Nooijen, L. D. Crosby, E. Brown, G. Cisneros,
     G. I. Fann, H. Fruchtl, J. Garza, K. Hirao, R. A. Kendall, J. A. Nichols,
       K. Tsemekhman, K. Wolinski, J. Anchell, D. E. Bernholdt, P. Borowski,
       T. Clark, D. Clerc, H. Dachsel, M. J. O. Deegan, K. Dyall, D. Elwood,
      E. Glendening, M. Gutowski, A. C. Hess, J. Jaffe, B. G. Johnson, J. Ju,
        R. Kobayashi, R. Kutteh, Z. Lin, R. Littlefield, X. Long, B. Meng,
      T. Nakajima, S. Niu, L. Pollack, M. Rosing, K. Glaesemann, G. Sandrone,
      M. Stave, H. Taylor, G. Thomas, J. H. van Lenthe, A. T. Wong, Z. Zhang.

 Total times  cpu:        3.6s     wall:        3.6s
