 argument  1 = nwchem/input_4_7.nw



============================== echo of input deck ==============================
echo
memory 1000 mb
geometry noautosym noautoz
O 0.87715956 1.70409266 0.47858616
H 1.70199937 1.19722607 0.29220265
H 1.16181787 2.60891668 0.65546661
O -0.64071556 -0.48854013 1.6410419
H -0.19915392 0.37247798 1.5285638
H -1.54433112 -0.32408724 1.298356
O 0.57630762 -1.69154092 -0.42866929
H 0.43417462 -2.64420081 -0.48595869
H 0.08911917 -1.3894609 0.38589939
O 2.81159896 -0.10395953 -0.18689424
H 3.46294039 -0.4517338 0.43482057
H 2.1584952 -0.82915775 -0.30211113
end
basis spherical
 * library cc-pvdz
end
task scf gradient
================================================================================


                                         
                                         


             Northwest Computational Chemistry Package (NWChem) 7.0.2
             --------------------------------------------------------


                    Environmental Molecular Sciences Laboratory
                       Pacific Northwest National Laboratory
                                Richland, WA 99352

                              Copyright (c) 1994-2020
                       Pacific Northwest National Laboratory
                            Battelle Memorial Institute

             NWChem is an open-source computational chemistry package
                        distributed under the terms of the
                      Educational Community License (ECL) 2.0
             A copy of the license is included with this distribution
                              in the LICENSE.TXT file

                                  ACKNOWLEDGMENT
                                  --------------

            This software and its documentation were developed at the
            EMSL at Pacific Northwest National Laboratory, a multiprogram
            national laboratory, operated for the U.S. Department of Energy
            by Battelle under Contract Number DE-AC05-76RL01830. Support
            for this work was provided by the Department of Energy Office
            of Biological and Environmental Research, Office of Basic
            Energy Sciences, and the Office of Advanced Scientific Computing.


           Job information
           ---------------

    hostname        = pop-os
    program         = nwchem
    date            = Tue Jul  6 14:06:51 2021

    compiled        = Wed_Jan_06_19:48:08_2021
    source          = /build/nwchem-ksKH2r/nwchem-7.0.2
    nwchem branch   = 7.0.2
    nwchem revision = N/A
    ga revision     = 5.7.1
    use scalapack   = T
    input           = nwchem/input_4_7.nw
    prefix          = input_4_7.
    data base       = ./input_4_7.db
    status          = startup
    nproc           =        1
    time left       =     -1s



           Memory information
           ------------------

    heap     =   32768000 doubles =    250.0 Mbytes
    stack    =   32767997 doubles =    250.0 Mbytes
    global   =   65536000 doubles =    500.0 Mbytes (distinct from heap & stack)
    total    =  131071997 doubles =   1000.0 Mbytes
    verify   = yes
    hardfail = no 


           Directory information
           ---------------------

  0 permanent = .
  0 scratch   = .




                                NWChem Input Module
                                -------------------



 Scaling coordinates for geometry "geometry" by  1.889725989
 (inverse scale =  0.529177249)



                             Geometry "geometry" -> ""
                             -------------------------

 Output coordinates in angstroms (scale by  1.889725989 to convert to a.u.)

  No.       Tag          Charge          X              Y              Z
 ---- ---------------- ---------- -------------- -------------- --------------
    1 O                    8.0000    -0.02933710     1.85658274     0.08259227
    2 H                    1.0000     0.79550271     1.34971615    -0.10379124
    3 H                    1.0000     0.25532121     2.76140676     0.25947272
    4 O                    8.0000    -1.54721222    -0.33605005     1.24504801
    5 H                    1.0000    -1.10565058     0.52496806     1.13256991
    6 H                    1.0000    -2.45082778    -0.17159716     0.90236211
    7 O                    8.0000    -0.33018904    -1.53905084    -0.82466318
    8 H                    1.0000    -0.47232204    -2.49171073    -0.88195258
    9 H                    1.0000    -0.81737749    -1.23697082    -0.01009450
   10 O                    8.0000     1.90510230     0.04853055    -0.58288813
   11 H                    1.0000     2.55644373    -0.29924372     0.03882668
   12 H                    1.0000     1.25199854    -0.67666767    -0.69810502

      Atomic Mass 
      ----------- 

      O                 15.994910
      H                  1.007825


 Effective nuclear repulsion energy (a.u.)     141.2425962535

            Nuclear Dipole moment (a.u.) 
            ----------------------------
        X                 Y               Z
 ---------------- ---------------- ----------------
    -0.0000000000     0.0000000000     0.0000000000


            XYZ format geometry
            -------------------
    12
 geometry
 O                    -0.02933710     1.85658274     0.08259227
 H                     0.79550271     1.34971615    -0.10379124
 H                     0.25532121     2.76140676     0.25947272
 O                    -1.54721222    -0.33605005     1.24504801
 H                    -1.10565058     0.52496806     1.13256991
 H                    -2.45082778    -0.17159716     0.90236211
 O                    -0.33018904    -1.53905084    -0.82466318
 H                    -0.47232204    -2.49171073    -0.88195258
 H                    -0.81737749    -1.23697082    -0.01009450
 O                     1.90510230     0.04853055    -0.58288813
 H                     2.55644373    -0.29924372     0.03882668
 H                     1.25199854    -0.67666767    -0.69810502

 ==============================================================================
                                internuclear distances
 ------------------------------------------------------------------------------
       center one      |      center two      | atomic units |  angstroms
 ------------------------------------------------------------------------------
    2 H                |   1 O                |     1.86309  |     0.98591
    3 H                |   1 O                |     1.82339  |     0.96490
    5 H                |   4 O                |     1.84089  |     0.97416
    6 H                |   4 O                |     1.85251  |     0.98031
    8 H                |   7 O                |     1.82341  |     0.96491
    9 H                |   7 O                |     1.88227  |     0.99606
   11 H                |  10 O                |     1.82407  |     0.96526
   12 H                |  10 O                |     1.85707  |     0.98272
 ------------------------------------------------------------------------------
                         number of included internuclear distances:          8
 ==============================================================================



 ==============================================================================
                                 internuclear angles
 ------------------------------------------------------------------------------
        center 1       |       center 2       |       center 3       |  degrees
 ------------------------------------------------------------------------------
    2 H                |   1 O                |   3 H                |   105.66
    5 H                |   4 O                |   6 H                |   103.25
    8 H                |   7 O                |   9 H                |   106.02
   11 H                |  10 O                |  12 H                |   104.96
 ------------------------------------------------------------------------------
                            number of included internuclear angles:          4
 ==============================================================================





 Summary of "ao basis" -> "" (spherical)
 ------------------------------------------------------------------------------
       Tag                 Description            Shells   Functions and Types
 ---------------- ------------------------------  ------  ---------------------
 *                          cc-pvdz                   on all atoms 


                      Basis "ao basis" -> "ao basis" (spherical)
                      -----
  O (Oxygen)
  ----------
            Exponent  Coefficients 
       -------------- ---------------------------------------------------------
  1 S  1.17200000E+04  0.000710
  1 S  1.75900000E+03  0.005470
  1 S  4.00800000E+02  0.027837
  1 S  1.13700000E+02  0.104800
  1 S  3.70300000E+01  0.283062
  1 S  1.32700000E+01  0.448719
  1 S  5.02500000E+00  0.270952
  1 S  1.01300000E+00  0.015458

  2 S  1.17200000E+04 -0.000160
  2 S  1.75900000E+03 -0.001263
  2 S  4.00800000E+02 -0.006267
  2 S  1.13700000E+02 -0.025716
  2 S  3.70300000E+01 -0.070924
  2 S  1.32700000E+01 -0.165411
  2 S  5.02500000E+00 -0.116955
  2 S  1.01300000E+00  0.557368

  3 S  3.02300000E-01  1.000000

  4 P  1.77000000E+01  0.043018
  4 P  3.85400000E+00  0.228913
  4 P  1.04600000E+00  0.508728

  5 P  2.75300000E-01  1.000000

  6 D  1.18500000E+00  1.000000

  H (Hydrogen)
  ------------
            Exponent  Coefficients 
       -------------- ---------------------------------------------------------
  1 S  1.30100000E+01  0.019685
  1 S  1.96200000E+00  0.137977
  1 S  4.44600000E-01  0.478148

  2 S  1.22000000E-01  1.000000

  3 P  7.27000000E-01  1.000000



 Summary of "ao basis" -> "ao basis" (spherical)
 ------------------------------------------------------------------------------
       Tag                 Description            Shells   Functions and Types
 ---------------- ------------------------------  ------  ---------------------
 O                          cc-pvdz                  6       14   3s2p1d
 H                          cc-pvdz                  3        5   2s1p


                                 NWChem SCF Module
                                 -----------------



  ao basis        = "ao basis"
  functions       =    96
  atoms           =    12
  closed shells   =    20
  open shells     =     0
  charge          =   0.00
  wavefunction    = RHF 
  input vectors   = atomic
  output vectors  = ./input_4_7.movecs
  use symmetry    = F
  symmetry adapt  = F


 Summary of "ao basis" -> "ao basis" (spherical)
 ------------------------------------------------------------------------------
       Tag                 Description            Shells   Functions and Types
 ---------------- ------------------------------  ------  ---------------------
 O                          cc-pvdz                  6       14   3s2p1d
 H                          cc-pvdz                  3        5   2s1p



 Forming initial guess at       0.1s


      Superposition of Atomic Density Guess
      -------------------------------------

 Sum of atomic energies:        -303.04891642

      Non-variational initial energy
      ------------------------------

 Total energy =    -303.809462
 1-e energy   =    -696.260316
 2-e energy   =     251.208258
 HOMO         =      -0.461141
 LUMO         =       0.052238


 Starting SCF solution at       0.5s



 ----------------------------------------------
         Quadratically convergent ROHF

 Convergence threshold     :          1.000E-04
 Maximum no. of iterations :           30
 Final Fock-matrix accuracy:          1.000E-07
 ----------------------------------------------


 Integral file          = ./input_4_7.aoints.0
 Record size in doubles =  65536        No. of integs per rec  =  43688
 Max. records in memory =    339        Max. records in file   = 400709
 No. of bits per label  =      8        No. of bits per value  =     64


 #quartets = 5.126D+05 #integrals = 6.233D+06 #direct =  0.0% #cached =100.0%


              iter       energy          gnorm     gmax       time
             ----- ------------------- --------- --------- --------
                 1     -304.0332667377  1.47D+00  2.35D-01      1.7
                 2     -304.1345651776  3.23D-01  5.11D-02      1.9
                 3     -304.1430636142  2.59D-02  3.57D-03      2.2
                 4     -304.1431254257  5.47D-04  6.53D-05      2.5
                 5     -304.1431254514  3.03D-06  5.13D-07      2.9


       Final RHF  results 
       ------------------ 

         Total SCF energy =   -304.143125451355
      One-electron energy =   -701.743666494837
      Two-electron energy =    256.357944789992
 Nuclear repulsion energy =    141.242596253490

        Time for solution =      2.4s


             Final eigenvalues
             -----------------

              1      
    1  -20.5668
    2  -20.5465
    3  -20.5428
    4  -20.5363
    5   -1.3500
    6   -1.3333
    7   -1.3188
    8   -1.3100
    9   -0.7107
   10   -0.7015
   11   -0.6932
   12   -0.6829
   13   -0.5996
   14   -0.5738
   15   -0.5637
   16   -0.5382
   17   -0.4966
   18   -0.4872
   19   -0.4831
   20   -0.4790
   21    0.1697
   22    0.2073
   23    0.2145
   24    0.2359
   25    0.3380
   26    0.3767
   27    0.4033
   28    0.4205
   29    0.7350
   30    0.7493

                       ROHF Final Molecular Orbital Analysis
                       -------------------------------------

 Vector    5  Occ=2.000000D+00  E=-1.349981D+00
              MO Center= -1.3D+00, -3.3D-01,  8.5D-01, r^2= 1.9D+00
   Bfn.  Coefficient  Atom+Function         Bfn.  Coefficient  Atom+Function  
  ----- ------------  ---------------      ----- ------------  ---------------
    26      0.399561   4 O  s                27      0.355161   4 O  s         
    44      0.162242   6 H  s                39      0.161363   5 H  s         
    50      0.155406   7 O  s         

 Vector    6  Occ=2.000000D+00  E=-1.333296D+00
              MO Center=  1.2D+00, -3.4D-02, -2.8D-01, r^2= 2.9D+00
   Bfn.  Coefficient  Atom+Function         Bfn.  Coefficient  Atom+Function  
  ----- ------------  ---------------      ----- ------------  ---------------
    74      0.374969  10 O  s                75      0.333466  10 O  s         
    87      0.157759  11 H  s                26     -0.150441   4 O  s         

 Vector    7  Occ=2.000000D+00  E=-1.318815D+00
              MO Center= -2.4D-01, -4.3D-01, -4.0D-01, r^2= 3.6D+00
   Bfn.  Coefficient  Atom+Function         Bfn.  Coefficient  Atom+Function  
  ----- ------------  ---------------      ----- ------------  ---------------
    50      0.353431   7 O  s                51      0.321056   7 O  s         
     2     -0.249753   1 O  s                 3     -0.221387   1 O  s         
    63      0.151477   8 H  s         

 Vector    8  Occ=2.000000D+00  E=-1.310018D+00
              MO Center=  3.7D-01,  7.8D-01, -1.4D-01, r^2= 3.5D+00
   Bfn.  Coefficient  Atom+Function         Bfn.  Coefficient  Atom+Function  
  ----- ------------  ---------------      ----- ------------  ---------------
     2      0.334744   1 O  s                 3      0.302809   1 O  s         
    74     -0.216414  10 O  s                75     -0.195862  10 O  s         
    50      0.181290   7 O  s                51      0.165863   7 O  s         

 Vector    9  Occ=2.000000D+00  E=-7.107336D-01
              MO Center= -9.6D-02, -1.2D-01,  1.2D-01, r^2= 4.6D+00
   Bfn.  Coefficient  Atom+Function         Bfn.  Coefficient  Atom+Function  
  ----- ------------  ---------------      ----- ------------  ---------------
    28      0.268032   4 O  px               76     -0.231081  10 O  px        
    53      0.199460   7 O  py                5     -0.194725   1 O  py        
    44     -0.192250   6 H  s                87     -0.177245  11 H  s         
    63     -0.164644   8 H  s                39      0.161398   5 H  s         

 Vector   10  Occ=2.000000D+00  E=-7.014963D-01
              MO Center= -6.5D-01, -3.7D-01,  4.9D-01, r^2= 3.8D+00
   Bfn.  Coefficient  Atom+Function         Bfn.  Coefficient  Atom+Function  
  ----- ------------  ---------------      ----- ------------  ---------------
    28      0.305612   4 O  px               39      0.258029   5 H  s         
    29      0.225848   4 O  py               44     -0.224757   6 H  s         
    76      0.195143  10 O  px               53     -0.176014   7 O  py        

 Vector   11  Occ=2.000000D+00  E=-6.931576D-01
              MO Center=  7.5D-02, -6.5D-01, -3.7D-01, r^2= 3.8D+00
   Bfn.  Coefficient  Atom+Function         Bfn.  Coefficient  Atom+Function  
  ----- ------------  ---------------      ----- ------------  ---------------
    53      0.258485   7 O  py               68      0.251833   9 H  s         
    54      0.223596   7 O  pz               63     -0.213627   8 H  s         
    76      0.204698  10 O  px                5      0.171827   1 O  py        
    87      0.166224  11 H  s         

 Vector   12  Occ=2.000000D+00  E=-6.828712D-01
              MO Center=  5.8D-01,  1.0D+00, -9.6D-02, r^2= 3.0D+00
   Bfn.  Coefficient  Atom+Function         Bfn.  Coefficient  Atom+Function  
  ----- ------------  ---------------      ----- ------------  ---------------
     5      0.335189   1 O  py               15     -0.247347   2 H  s         
    20      0.240724   3 H  s                92      0.200687  12 H  s         
    77     -0.179294  10 O  py               76     -0.170077  10 O  px        
     8      0.158012   1 O  py                4     -0.153036   1 O  px        

 Vector   13  Occ=2.000000D+00  E=-5.995840D-01
              MO Center= -6.2D-01, -1.6D-01,  4.6D-01, r^2= 4.0D+00
   Bfn.  Coefficient  Atom+Function         Bfn.  Coefficient  Atom+Function  
  ----- ------------  ---------------      ----- ------------  ---------------
    29      0.307951   4 O  py               27     -0.251724   4 O  s         
    32      0.204117   4 O  py               28     -0.200237   4 O  px        
    44      0.182871   6 H  s                53      0.178871   7 O  py        
     4     -0.163788   1 O  px               51      0.154822   7 O  s         
    77     -0.151838  10 O  py        

 Vector   14  Occ=2.000000D+00  E=-5.737580D-01
              MO Center=  4.5D-01, -1.0D-01,  6.3D-02, r^2= 4.4D+00
   Bfn.  Coefficient  Atom+Function         Bfn.  Coefficient  Atom+Function  
  ----- ------------  ---------------      ----- ------------  ---------------
    77      0.334645  10 O  py               29      0.265622   4 O  py        
    75      0.252259  10 O  s                80      0.220830  10 O  py        
    78     -0.188570  10 O  pz               32      0.179685   4 O  py        
    27     -0.177303   4 O  s                87     -0.177119  11 H  s         
    30     -0.164888   4 O  pz               52     -0.158066   7 O  px        

 Vector   15  Occ=2.000000D+00  E=-5.636635D-01
              MO Center= -1.8D-01, -2.5D-02, -2.8D-01, r^2= 4.0D+00
   Bfn.  Coefficient  Atom+Function         Bfn.  Coefficient  Atom+Function  
  ----- ------------  ---------------      ----- ------------  ---------------
     4      0.302294   1 O  px               53      0.247714   7 O  py        
    51      0.244270   7 O  s                 3     -0.214565   1 O  s         
     7      0.206239   1 O  px               54     -0.204316   7 O  pz        
    52      0.170701   7 O  px               63     -0.170824   8 H  s         
    30      0.167029   4 O  pz               56      0.156314   7 O  py        

 Vector   16  Occ=2.000000D+00  E=-5.382230D-01
              MO Center=  2.6D-01,  3.6D-01, -1.5D-01, r^2= 4.2D+00
   Bfn.  Coefficient  Atom+Function         Bfn.  Coefficient  Atom+Function  
  ----- ------------  ---------------      ----- ------------  ---------------
     4      0.330515   1 O  px                7      0.230318   1 O  px        
    77     -0.216369  10 O  py               78      0.200423  10 O  pz        
    54      0.193545   7 O  pz                3     -0.183778   1 O  s         
    30     -0.165014   4 O  pz               29      0.152206   4 O  py        

 Vector   17  Occ=2.000000D+00  E=-4.965844D-01
              MO Center= -1.3D+00, -5.8D-01,  7.5D-01, r^2= 2.0D+00
   Bfn.  Coefficient  Atom+Function         Bfn.  Coefficient  Atom+Function  
  ----- ------------  ---------------      ----- ------------  ---------------
    30      0.501423   4 O  pz               33      0.399448   4 O  pz        
    54      0.293867   7 O  pz               57      0.215137   7 O  pz        
    28     -0.179317   4 O  px               29      0.163534   4 O  py        

 Vector   18  Occ=2.000000D+00  E=-4.871902D-01
              MO Center=  1.1D+00, -7.0D-04, -4.7D-01, r^2= 2.8D+00
   Bfn.  Coefficient  Atom+Function         Bfn.  Coefficient  Atom+Function  
  ----- ------------  ---------------      ----- ------------  ---------------
    78      0.349915  10 O  pz               81      0.284201  10 O  pz        
    77      0.273854  10 O  py               52      0.249941   7 O  px        
    76     -0.230164  10 O  px               55      0.201834   7 O  px        
    80      0.202302  10 O  py               79     -0.190136  10 O  px        
     6      0.179225   1 O  pz                4     -0.164327   1 O  px        

 Vector   19  Occ=2.000000D+00  E=-4.830850D-01
              MO Center=  8.1D-02, -8.0D-01, -5.9D-01, r^2= 3.1D+00
   Bfn.  Coefficient  Atom+Function         Bfn.  Coefficient  Atom+Function  
  ----- ------------  ---------------      ----- ------------  ---------------
    52      0.438692   7 O  px               55      0.344232   7 O  px        
    54      0.250782   7 O  pz                6     -0.215713   1 O  pz        
    57      0.206177   7 O  pz               78     -0.191868  10 O  pz        
    76      0.189755  10 O  px                9     -0.170979   1 O  pz        
    81     -0.153280  10 O  pz        

 Vector   20  Occ=2.000000D+00  E=-4.789679D-01
              MO Center=  2.6D-01,  1.5D+00, -4.7D-02, r^2= 2.0D+00
   Bfn.  Coefficient  Atom+Function         Bfn.  Coefficient  Atom+Function  
  ----- ------------  ---------------      ----- ------------  ---------------
     6      0.535572   1 O  pz                9      0.428438   1 O  pz        
    78     -0.200626  10 O  pz               81     -0.151765  10 O  pz        

 Vector   21  Occ=0.000000D+00  E= 1.697052D-01
              MO Center= -3.0D-01, -2.2D-01,  1.5D-01, r^2= 8.9D+00
   Bfn.  Coefficient  Atom+Function         Bfn.  Coefficient  Atom+Function  
  ----- ------------  ---------------      ----- ------------  ---------------
    45      0.657129   6 H  s                64      0.630653   8 H  s         
    88      0.558530  11 H  s                27     -0.527828   4 O  s         
    21      0.511931   3 H  s                51     -0.453171   7 O  s         
    75     -0.433353  10 O  s                 3     -0.415642   1 O  s         
    40      0.191950   5 H  s                56      0.172171   7 O  py        

 Vector   22  Occ=0.000000D+00  E= 2.072582D-01
              MO Center=  6.7D-02, -6.2D-02,  4.6D-01, r^2= 9.9D+00
   Bfn.  Coefficient  Atom+Function         Bfn.  Coefficient  Atom+Function  
  ----- ------------  ---------------      ----- ------------  ---------------
    45      0.985022   6 H  s                88     -0.982839  11 H  s         
    75      0.566528  10 O  s                27     -0.522231   4 O  s         
    21     -0.377295   3 H  s                31      0.298006   4 O  px        
     3      0.235763   1 O  s                64      0.211254   8 H  s         
    79      0.206830  10 O  px               81      0.203971  10 O  pz        

 Vector   23  Occ=0.000000D+00  E= 2.144536D-01
              MO Center= -1.2D-01,  9.4D-02, -2.0D-01, r^2= 1.1D+01
   Bfn.  Coefficient  Atom+Function         Bfn.  Coefficient  Atom+Function  
  ----- ------------  ---------------      ----- ------------  ---------------
    64     -0.978710   8 H  s                21      0.962429   3 H  s         
     3     -0.571826   1 O  s                51      0.562957   7 O  s         
    56     -0.299857   7 O  py                8     -0.266136   1 O  py        
    45      0.263663   6 H  s                88     -0.264188  11 H  s         
    27     -0.231756   4 O  s                75      0.179767  10 O  s         

 Vector   24  Occ=0.000000D+00  E= 2.358833D-01
              MO Center=  2.0D-01, -9.6D-02,  5.5D-02, r^2= 1.1D+01
   Bfn.  Coefficient  Atom+Function         Bfn.  Coefficient  Atom+Function  
  ----- ------------  ---------------      ----- ------------  ---------------
    88     -0.823775  11 H  s                64      0.799611   8 H  s         
    21      0.781115   3 H  s                45     -0.671558   6 H  s         
    51     -0.429572   7 O  s                75      0.417850  10 O  s         
     3     -0.409707   1 O  s                27      0.352892   4 O  s         
    56      0.260323   7 O  py                8     -0.247440   1 O  py        

 Vector   25  Occ=0.000000D+00  E= 3.380179D-01
              MO Center= -7.8D-01,  7.4D-01,  9.8D-01, r^2= 4.6D+00
   Bfn.  Coefficient  Atom+Function         Bfn.  Coefficient  Atom+Function  
  ----- ------------  ---------------      ----- ------------  ---------------
    40      1.651022   5 H  s                45     -0.884473   6 H  s         
    21     -0.693846   3 H  s                27     -0.468167   4 O  s         
    31     -0.442619   4 O  px                8      0.410981   1 O  py        
    16      0.401051   2 H  s                32     -0.364581   4 O  py        
    88     -0.321980  11 H  s                64     -0.233808   8 H  s         

 Vector   26  Occ=0.000000D+00  E= 3.767443D-01
              MO Center=  5.5D-01, -7.4D-01, -3.3D-01, r^2= 5.3D+00
   Bfn.  Coefficient  Atom+Function         Bfn.  Coefficient  Atom+Function  
  ----- ------------  ---------------      ----- ------------  ---------------
    93      1.522303  12 H  s                69      0.945125   9 H  s         
    40     -0.796278   5 H  s                64     -0.782316   8 H  s         
    88     -0.783720  11 H  s                79      0.458434  10 O  px        
    75     -0.438144  10 O  s                56     -0.420319   7 O  py        
    51     -0.353136   7 O  s                32      0.279625   4 O  py        

 Vector   27  Occ=0.000000D+00  E= 4.033478D-01
              MO Center=  4.7D-01,  6.9D-01, -1.7D-02, r^2= 5.5D+00
   Bfn.  Coefficient  Atom+Function         Bfn.  Coefficient  Atom+Function  
  ----- ------------  ---------------      ----- ------------  ---------------
    16      1.896059   2 H  s                69     -1.115932   9 H  s         
    21     -0.687070   3 H  s                 3     -0.547813   1 O  s         
    40     -0.438704   5 H  s                 8      0.416964   1 O  py        
    45      0.415729   6 H  s                64      0.415768   8 H  s         
     7     -0.402644   1 O  px               88     -0.383924  11 H  s         

 Vector   28  Occ=0.000000D+00  E= 4.205044D-01
              MO Center=  4.9D-02, -7.3D-01, -2.1D-01, r^2= 5.6D+00
   Bfn.  Coefficient  Atom+Function         Bfn.  Coefficient  Atom+Function  
  ----- ------------  ---------------      ----- ------------  ---------------
    69      1.782737   9 H  s                93     -1.575601  12 H  s         
    16      1.048408   2 H  s                40     -0.610277   5 H  s         
    75      0.420162  10 O  s                51     -0.412067   7 O  s         
    55      0.412566   7 O  px               80     -0.383001  10 O  py        
    64     -0.378404   8 H  s                57     -0.344272   7 O  pz        

 Vector   29  Occ=0.000000D+00  E= 7.349566D-01
              MO Center= -9.2D-03, -3.4D-01, -2.4D-01, r^2= 4.4D+00
   Bfn.  Coefficient  Atom+Function         Bfn.  Coefficient  Atom+Function  
  ----- ------------  ---------------      ----- ------------  ---------------
    69     -0.838951   9 H  s                68      0.794544   9 H  s         
    93      0.675068  12 H  s                16     -0.599396   2 H  s         
    15      0.595667   2 H  s                63     -0.476882   8 H  s         
    40      0.458928   5 H  s                92     -0.440481  12 H  s         
    20     -0.354827   3 H  s                64      0.347110   8 H  s         

 Vector   30  Occ=0.000000D+00  E= 7.493343D-01
              MO Center= -1.3D+00, -2.2D-01,  7.5D-01, r^2= 3.6D+00
   Bfn.  Coefficient  Atom+Function         Bfn.  Coefficient  Atom+Function  
  ----- ------------  ---------------      ----- ------------  ---------------
    44     -0.873189   6 H  s                39      0.811836   5 H  s         
    45      0.680368   6 H  s                40     -0.675556   5 H  s         
    63     -0.389574   8 H  s                31     -0.356344   4 O  px        
    92      0.306030  12 H  s                64      0.230573   8 H  s         
    15      0.197352   2 H  s                32     -0.197222   4 O  py        


 center of mass
 --------------
 x =  -0.00034041 y =   0.00624471 z =  -0.01662716

 moments of inertia (a.u.)
 ------------------
         563.232051354180         -68.793537215537         171.829339409609
         -68.793537215537         570.769595447577         -69.016420759463
         171.829339409609         -69.016420759463         814.899811051149

  Mulliken analysis of the total density
  --------------------------------------

    Atom       Charge   Shell Charges
 -----------   ------   -------------------------------------------------------
    1 O    8     8.38   2.00  0.82  0.84  2.83  1.87  0.01
    2 H    1     0.79   0.61  0.09  0.09
    3 H    1     0.84   0.68  0.07  0.08
    4 O    8     8.35   2.00  0.83  0.84  2.83  1.84  0.01
    5 H    1     0.80   0.63  0.08  0.08
    6 H    1     0.82   0.67  0.07  0.08
    7 O    8     8.39   2.00  0.82  0.85  2.83  1.87  0.01
    8 H    1     0.84   0.68  0.07  0.08
    9 H    1     0.78   0.60  0.09  0.09
   10 O    8     8.37   2.00  0.83  0.84  2.83  1.85  0.01
   11 H    1     0.84   0.68  0.07  0.08
   12 H    1     0.79   0.62  0.09  0.09

       Multipole analysis of the density wrt the origin
       ------------------------------------------------

     L   x y z        total         open         nuclear
     -   - - -        -----         ----         -------
     0   0 0 0     -0.000000      0.000000     40.000000

     1   1 0 0     -0.056181      0.000000     -0.000000
     1   0 1 0     -0.246963      0.000000      0.000000
     1   0 0 1      0.607328      0.000000      0.000000

     2   2 0 0    -13.624721      0.000000    235.641891
     2   1 1 0      0.246160      0.000000     38.294332
     2   1 0 1      2.327386      0.000000    -92.724741
     2   0 2 0    -11.885393      0.000000    233.851781
     2   0 1 1      2.306266      0.000000     41.045020
     2   0 0 2    -22.865341      0.000000     85.906319


 Parallel integral file used     143 records with       0 large values

                              NWChem Gradients Module
                              -----------------------



  wavefunction    =   RHF     



                         RHF ENERGY GRADIENTS

    atom               coordinates                        gradient
                 x          y          z           x          y          z
   1 O      -0.055439   3.508433   0.156077   -0.024500  -0.007304  -0.004969
   2 H       1.503282   2.550594  -0.196137    0.023280  -0.013977  -0.001757
   3 H       0.482487   5.218302   0.490332    0.005880   0.020107   0.004021
   4 O      -2.923807  -0.635043   2.352800    0.027233  -0.024761   0.009002
   5 H      -2.089377   0.992046   2.140247    0.005821   0.014676   0.001076
   6 H      -4.631393  -0.324272   1.705217   -0.030389   0.004822  -0.012703
   7 O      -0.623967  -2.908384  -1.558387    0.016573   0.015763  -0.023110
   8 H      -0.892559  -4.708651  -1.666649   -0.002912  -0.020611  -0.001742
   9 H      -1.544619  -2.337536  -0.019076   -0.016925   0.010609   0.028749
  10 O       3.600121   0.091709  -1.101499   -0.004237   0.026289  -0.012693
  11 H       4.830978  -0.565489   0.073372    0.013607  -0.007344   0.013307
  12 H       2.365934  -1.278716  -1.319227   -0.013430  -0.018270   0.000816

                 ----------------------------------------
                 |  Time  |  1-e(secs)   |  2-e(secs)   |
                 ----------------------------------------
                 |  CPU   |       0.02   |       1.35   |
                 ----------------------------------------
                 |  WALL  |       0.02   |       1.36   |
                 ----------------------------------------

 Task  times  cpu:        4.3s     wall:        4.4s


                                NWChem Input Module
                                -------------------


 Summary of allocated global arrays
-----------------------------------
  No active global arrays



                         GA Statistics for process    0
                         ------------------------------

       create   destroy   get      put      acc     scatter   gather  read&inc
calls:  268      268     1.11e+04 5696     4684        0        0      167     
number of processes/call 0.00e+00 0.00e+00 0.00e+00 0.00e+00 0.00e+00
bytes total:             2.58e+07 1.54e+07 3.80e+06 0.00e+00 0.00e+00 1.34e+03
bytes remote:            0.00e+00 0.00e+00 0.00e+00 0.00e+00 0.00e+00 0.00e+00
Max memory consumed for GA by this process: 958464 bytes

MA_summarize_allocated_blocks: starting scan ...
MA_summarize_allocated_blocks: scan completed: 0 heap blocks, 0 stack blocks
MA usage statistics:

	allocation statistics:
					      heap	     stack
					      ----	     -----
	current number of blocks	         0	         0
	maximum number of blocks	        18	        28
	current total bytes		         0	         0
	maximum total bytes		 177770816	  26178696
	maximum total K-bytes		    177771	     26179
	maximum total M-bytes		       178	        27


                                     CITATION
                                     --------
                Please cite the following reference when publishing
                           results obtained with NWChem:

          E. Aprà, E. J. Bylaska, W. A. de Jong, N. Govind, K. Kowalski,
       T. P. Straatsma, M. Valiev, H. J. J. van Dam, Y. Alexeev, J. Anchell,
       V. Anisimov, F. W. Aquino, R. Atta-Fynn, J. Autschbach, N. P. Bauman,
     J. C. Becca, D. E. Bernholdt, K. Bhaskaran-Nair, S. Bogatko, P. Borowski,
        J. Boschen, J. Brabec, A. Bruner, E. Cauët, Y. Chen, G. N. Chuev,
      C. J. Cramer, J. Daily, M. J. O. Deegan, T. H. Dunning Jr., M. Dupuis,
   K. G. Dyall, G. I. Fann, S. A. Fischer, A. Fonari, H. Früchtl, L. Gagliardi,
      J. Garza, N. Gawande, S. Ghosh, K. Glaesemann, A. W. Götz, J. Hammond,
       V. Helms, E. D. Hermes, K. Hirao, S. Hirata, M. Jacquelin, L. Jensen,
   B. G. Johnson, H. Jónsson, R. A. Kendall, M. Klemm, R. Kobayashi, V. Konkov,
      S. Krishnamoorthy, M. Krishnan, Z. Lin, R. D. Lins, R. J. Littlefield,
      A. J. Logsdail, K. Lopata, W. Ma, A. V. Marenich, J. Martin del Campo,
   D. Mejia-Rodriguez, J. E. Moore, J. M. Mullin, T. Nakajima, D. R. Nascimento,
    J. A. Nichols, P. J. Nichols, J. Nieplocha, A. Otero-de-la-Roza, B. Palmer,
    A. Panyala, T. Pirojsirikul, B. Peng, R. Peverati, J. Pittner, L. Pollack,
   R. M. Richard, P. Sadayappan, G. C. Schatz, W. A. Shelton, D. W. Silverstein,
   D. M. A. Smith, T. A. Soares, D. Song, M. Swart, H. L. Taylor, G. S. Thomas,
            V. Tipparaju, D. G. Truhlar, K. Tsemekhman, T. Van Voorhis,
     Á. Vázquez-Mayagoitia, P. Verma, O. Villa, A. Vishnu, K. D. Vogiatzis,
        D. Wang, J. H. Weare, M. J. Williamson, T. L. Windus, K. Woliński,
        A. T. Wong, Q. Wu, C. Yang, Q. Yu, M. Zacharias, Z. Zhang, Y. Zhao,
                                and R. J. Harrison
                        "NWChem: Past, present, and future
                         J. Chem. Phys. 152, 184102 (2020)
                               doi:10.1063/5.0004997

                                      AUTHORS
                                      -------
     E. Apra, E. J. Bylaska, N. Govind, K. Kowalski, M. Valiev, W. A. de Jong,
      T. P. Straatsma, H. J. J. van Dam, D. Wang, T. L. Windus, N. P. Bauman,
       A. Panyala, J. Hammond, J. Autschbach, K. Bhaskaran-Nair, J. Brabec,
    K. Lopata, S. A. Fischer, S. Krishnamoorthy, M. Jacquelin, W. Ma, M. Klemm,
       O. Villa, Y. Chen, V. Anisimov, F. Aquino, S. Hirata, M. T. Hackler,
           Eric Hermes, L. Jensen, J. E. Moore, J. C. Becca, V. Konjkov,
            D. Mejia-Rodriguez, T. Risthaus, M. Malagoli, A. Marenich,
   A. Otero-de-la-Roza, J. Mullin, P. Nichols, R. Peverati, J. Pittner, Y. Zhao,
        P.-D. Fan, A. Fonari, M. J. Williamson, R. J. Harrison, J. R. Rehr,
      M. Dupuis, D. Silverstein, D. M. A. Smith, J. Nieplocha, V. Tipparaju,
      M. Krishnan, B. E. Van Kuiken, A. Vazquez-Mayagoitia, M. Swart, Q. Wu,
   T. Van Voorhis, A. A. Auer, M. Nooijen, L. D. Crosby, E. Brown, G. Cisneros,
     G. I. Fann, H. Fruchtl, J. Garza, K. Hirao, R. A. Kendall, J. A. Nichols,
       K. Tsemekhman, K. Wolinski, J. Anchell, D. E. Bernholdt, P. Borowski,
       T. Clark, D. Clerc, H. Dachsel, M. J. O. Deegan, K. Dyall, D. Elwood,
      E. Glendening, M. Gutowski, A. C. Hess, J. Jaffe, B. G. Johnson, J. Ju,
        R. Kobayashi, R. Kutteh, Z. Lin, R. Littlefield, X. Long, B. Meng,
      T. Nakajima, S. Niu, L. Pollack, M. Rosing, K. Glaesemann, G. Sandrone,
      M. Stave, H. Taylor, G. Thomas, J. H. van Lenthe, A. T. Wong, Z. Zhang.

 Total times  cpu:        4.3s     wall:        4.4s
