 argument  1 = nwchem/input_3_16_1.nw



============================== echo of input deck ==============================
echo
memory 1000 mb
geometry noautosym noautoz
O -0.82054445 0.61636011 -1.6312343
H -0.26682713 1.17302621 -1.05309865
H -0.36885969 -0.24447946 -1.58195952
O 2.81159896 -0.10395953 -0.18689424
H 3.46294039 -0.4517338 0.43482057
H 2.1584952 -0.82915775 -0.30211113
O -2.88801599 -0.0663369 0.05761427
H -2.29024563 0.26724676 -0.65069518
H -3.66545029 0.50362404 0.03495814
end
basis spherical
 * library cc-pvdz
end
task scf gradient
================================================================================


                                         
                                         


             Northwest Computational Chemistry Package (NWChem) 7.0.2
             --------------------------------------------------------


                    Environmental Molecular Sciences Laboratory
                       Pacific Northwest National Laboratory
                                Richland, WA 99352

                              Copyright (c) 1994-2020
                       Pacific Northwest National Laboratory
                            Battelle Memorial Institute

             NWChem is an open-source computational chemistry package
                        distributed under the terms of the
                      Educational Community License (ECL) 2.0
             A copy of the license is included with this distribution
                              in the LICENSE.TXT file

                                  ACKNOWLEDGMENT
                                  --------------

            This software and its documentation were developed at the
            EMSL at Pacific Northwest National Laboratory, a multiprogram
            national laboratory, operated for the U.S. Department of Energy
            by Battelle under Contract Number DE-AC05-76RL01830. Support
            for this work was provided by the Department of Energy Office
            of Biological and Environmental Research, Office of Basic
            Energy Sciences, and the Office of Advanced Scientific Computing.


           Job information
           ---------------

    hostname        = pop-os
    program         = nwchem
    date            = Tue Jul  6 14:10:14 2021

    compiled        = Wed_Jan_06_19:48:08_2021
    source          = /build/nwchem-ksKH2r/nwchem-7.0.2
    nwchem branch   = 7.0.2
    nwchem revision = N/A
    ga revision     = 5.7.1
    use scalapack   = T
    input           = nwchem/input_3_16_1.nw
    prefix          = input_3_16_1.
    data base       = ./input_3_16_1.db
    status          = startup
    nproc           =        1
    time left       =     -1s



           Memory information
           ------------------

    heap     =   32767996 doubles =    250.0 Mbytes
    stack    =   32768001 doubles =    250.0 Mbytes
    global   =   65536000 doubles =    500.0 Mbytes (distinct from heap & stack)
    total    =  131071997 doubles =   1000.0 Mbytes
    verify   = yes
    hardfail = no 


           Directory information
           ---------------------

  0 permanent = .
  0 scratch   = .




                                NWChem Input Module
                                -------------------



 Scaling coordinates for geometry "geometry" by  1.889725989
 (inverse scale =  0.529177249)



                             Geometry "geometry" -> ""
                             -------------------------

 Output coordinates in angstroms (scale by  1.889725989 to convert to a.u.)

  No.       Tag          Charge          X              Y              Z
 ---- ---------------- ---------- -------------- -------------- --------------
    1 O                    8.0000    -0.54902315     0.48345893    -1.05782764
    2 H                    1.0000     0.00469417     1.04012503    -0.47969199
    3 H                    1.0000    -0.09733839    -0.37738064    -1.00855286
    4 O                    8.0000     3.08312026    -0.23686071     0.38651242
    5 H                    1.0000     3.73446169    -0.58463498     1.00822723
    6 H                    1.0000     2.43001650    -0.96205893     0.27129553
    7 O                    8.0000    -2.61649469    -0.19923808     0.63102093
    8 H                    1.0000    -2.01872433     0.13434558    -0.07728852
    9 H                    1.0000    -3.39392899     0.37072286     0.60836480

      Atomic Mass 
      ----------- 

      O                 15.994910
      H                  1.007825


 Effective nuclear repulsion energy (a.u.)      69.4451761852

            Nuclear Dipole moment (a.u.) 
            ----------------------------
        X                 Y               Z
 ---------------- ---------------- ----------------
    -0.0000000000    -0.0000000000     0.0000000000


            XYZ format geometry
            -------------------
     9
 geometry
 O                    -0.54902315     0.48345893    -1.05782764
 H                     0.00469417     1.04012503    -0.47969199
 H                    -0.09733839    -0.37738064    -1.00855286
 O                     3.08312026    -0.23686071     0.38651242
 H                     3.73446169    -0.58463498     1.00822723
 H                     2.43001650    -0.96205893     0.27129553
 O                    -2.61649469    -0.19923808     0.63102093
 H                    -2.01872433     0.13434558    -0.07728852
 H                    -3.39392899     0.37072286     0.60836480

 ==============================================================================
                                internuclear distances
 ------------------------------------------------------------------------------
       center one      |      center two      | atomic units |  angstroms
 ------------------------------------------------------------------------------
    2 H                |   1 O                |     1.84258  |     0.97505
    3 H                |   1 O                |     1.83944  |     0.97339
    5 H                |   4 O                |     1.82407  |     0.96526
    6 H                |   4 O                |     1.85707  |     0.98272
    8 H                |   7 O                |     1.86146  |     0.98504
    9 H                |   7 O                |     1.82216  |     0.96425
 ------------------------------------------------------------------------------
                         number of included internuclear distances:          6
 ==============================================================================



 ==============================================================================
                                 internuclear angles
 ------------------------------------------------------------------------------
        center 1       |       center 2       |       center 3       |  degrees
 ------------------------------------------------------------------------------
    2 H                |   1 O                |   3 H                |   102.20
    5 H                |   4 O                |   6 H                |   104.96
    8 H                |   7 O                |   9 H                |   105.80
 ------------------------------------------------------------------------------
                            number of included internuclear angles:          3
 ==============================================================================





 Summary of "ao basis" -> "" (spherical)
 ------------------------------------------------------------------------------
       Tag                 Description            Shells   Functions and Types
 ---------------- ------------------------------  ------  ---------------------
 *                          cc-pvdz                   on all atoms 


                      Basis "ao basis" -> "ao basis" (spherical)
                      -----
  O (Oxygen)
  ----------
            Exponent  Coefficients 
       -------------- ---------------------------------------------------------
  1 S  1.17200000E+04  0.000710
  1 S  1.75900000E+03  0.005470
  1 S  4.00800000E+02  0.027837
  1 S  1.13700000E+02  0.104800
  1 S  3.70300000E+01  0.283062
  1 S  1.32700000E+01  0.448719
  1 S  5.02500000E+00  0.270952
  1 S  1.01300000E+00  0.015458

  2 S  1.17200000E+04 -0.000160
  2 S  1.75900000E+03 -0.001263
  2 S  4.00800000E+02 -0.006267
  2 S  1.13700000E+02 -0.025716
  2 S  3.70300000E+01 -0.070924
  2 S  1.32700000E+01 -0.165411
  2 S  5.02500000E+00 -0.116955
  2 S  1.01300000E+00  0.557368

  3 S  3.02300000E-01  1.000000

  4 P  1.77000000E+01  0.043018
  4 P  3.85400000E+00  0.228913
  4 P  1.04600000E+00  0.508728

  5 P  2.75300000E-01  1.000000

  6 D  1.18500000E+00  1.000000

  H (Hydrogen)
  ------------
            Exponent  Coefficients 
       -------------- ---------------------------------------------------------
  1 S  1.30100000E+01  0.019685
  1 S  1.96200000E+00  0.137977
  1 S  4.44600000E-01  0.478148

  2 S  1.22000000E-01  1.000000

  3 P  7.27000000E-01  1.000000



 Summary of "ao basis" -> "ao basis" (spherical)
 ------------------------------------------------------------------------------
       Tag                 Description            Shells   Functions and Types
 ---------------- ------------------------------  ------  ---------------------
 O                          cc-pvdz                  6       14   3s2p1d
 H                          cc-pvdz                  3        5   2s1p


                                 NWChem SCF Module
                                 -----------------



  ao basis        = "ao basis"
  functions       =    72
  atoms           =     9
  closed shells   =    15
  open shells     =     0
  charge          =   0.00
  wavefunction    = RHF 
  input vectors   = atomic
  output vectors  = ./input_3_16_1.movecs
  use symmetry    = F
  symmetry adapt  = F


 Summary of "ao basis" -> "ao basis" (spherical)
 ------------------------------------------------------------------------------
       Tag                 Description            Shells   Functions and Types
 ---------------- ------------------------------  ------  ---------------------
 O                          cc-pvdz                  6       14   3s2p1d
 H                          cc-pvdz                  3        5   2s1p



 Forming initial guess at       0.0s


      Superposition of Atomic Density Guess
      -------------------------------------

 Sum of atomic energies:        -227.28668731

      Non-variational initial energy
      ------------------------------

 Total energy =    -227.749156
 1-e energy   =    -449.219089
 2-e energy   =     152.024756
 HOMO         =      -0.461513
 LUMO         =       0.047729


 Starting SCF solution at       0.2s



 ----------------------------------------------
         Quadratically convergent ROHF

 Convergence threshold     :          1.000E-04
 Maximum no. of iterations :           30
 Final Fock-matrix accuracy:          1.000E-07
 ----------------------------------------------


 Integral file          = ./input_3_16_1.aoints.0
 Record size in doubles =  65536        No. of integs per rec  =  43688
 Max. records in memory =    110        Max. records in file   = 400604
 No. of bits per label  =      8        No. of bits per value  =     64


 #quartets = 1.291D+05 #integrals = 1.494D+06 #direct =  0.0% #cached =100.0%


              iter       energy          gnorm     gmax       time
             ----- ------------------- --------- --------- --------
                 1     -227.9868559589  1.38D+00  2.38D-01      0.6
                 2     -228.0776322761  2.99D-01  8.00D-02      0.6
                 3     -228.0846921945  2.58D-02  6.13D-03      0.7
                 4     -228.0847484909  4.61D-04  8.71D-05      0.8
                 5     -228.0847485067  9.13D-06  1.99D-06      0.9


       Final RHF  results 
       ------------------ 

         Total SCF energy =   -228.084748506663
      One-electron energy =   -453.119152808048
      Two-electron energy =    155.589228116207
 Nuclear repulsion energy =     69.445176185178

        Time for solution =      0.7s


             Final eigenvalues
             -----------------

              1      
    1  -20.5880
    2  -20.5694
    3  -20.5136
    4   -1.3655
    5   -1.3442
    6   -1.2937
    7   -0.7181
    8   -0.7079
    9   -0.6736
   10   -0.6022
   11   -0.5790
   12   -0.5432
   13   -0.5079
   14   -0.5054
   15   -0.4585
   16    0.1336
   17    0.1973
   18    0.2225
   19    0.2376
   20    0.2843
   21    0.3937
   22    0.7383
   23    0.7592
   24    0.8029
   25    0.8234

                       ROHF Final Molecular Orbital Analysis
                       -------------------------------------

 Vector    4  Occ=2.000000D+00  E=-1.365492D+00
              MO Center= -4.4D-01,  4.3D-01, -9.5D-01, r^2= 5.9D-01
   Bfn.  Coefficient  Atom+Function         Bfn.  Coefficient  Atom+Function  
  ----- ------------  ---------------      ----- ------------  ---------------
     2      0.442756  1 O  s                  3      0.388372  1 O  s          
    20      0.184775  3 H  s                 15      0.182378  2 H  s          

 Vector    5  Occ=2.000000D+00  E=-1.344244D+00
              MO Center=  3.1D+00, -3.8D-01,  4.6D-01, r^2= 5.1D-01
   Bfn.  Coefficient  Atom+Function         Bfn.  Coefficient  Atom+Function  
  ----- ------------  ---------------      ----- ------------  ---------------
    26      0.444826  4 O  s                 27      0.387996  4 O  s          
    39      0.190462  5 H  s                 44      0.182502  6 H  s          

 Vector    6  Occ=2.000000D+00  E=-1.293674D+00
              MO Center= -2.6D+00, -6.7D-02,  5.2D-01, r^2= 6.1D-01
   Bfn.  Coefficient  Atom+Function         Bfn.  Coefficient  Atom+Function  
  ----- ------------  ---------------      ----- ------------  ---------------
    50      0.440328  7 O  s                 51      0.390263  7 O  s          
    68      0.190961  9 H  s                 63      0.174398  8 H  s          

 Vector    7  Occ=2.000000D+00  E=-7.180837D-01
              MO Center= -3.6D-01,  4.2D-01, -9.3D-01, r^2= 8.3D-01
   Bfn.  Coefficient  Atom+Function         Bfn.  Coefficient  Atom+Function  
  ----- ------------  ---------------      ----- ------------  ---------------
     5      0.462002  1 O  py                15      0.317613  2 H  s          
    20     -0.317094  3 H  s                  8      0.222496  1 O  py         
     6      0.168598  1 O  pz         

 Vector    8  Occ=2.000000D+00  E=-7.079460D-01
              MO Center=  3.1D+00, -4.4D-01,  4.8D-01, r^2= 8.5D-01
   Bfn.  Coefficient  Atom+Function         Bfn.  Coefficient  Atom+Function  
  ----- ------------  ---------------      ----- ------------  ---------------
    28      0.411100  4 O  px                39      0.326949  5 H  s          
    44     -0.319783  6 H  s                 30      0.238254  4 O  pz         
    31      0.192186  4 O  px         

 Vector    9  Occ=2.000000D+00  E=-6.735796D-01
              MO Center= -2.4D+00,  3.2D-02,  3.0D-01, r^2= 1.5D+00
   Bfn.  Coefficient  Atom+Function         Bfn.  Coefficient  Atom+Function  
  ----- ------------  ---------------      ----- ------------  ---------------
    52      0.395189  7 O  px                63      0.302965  8 H  s          
    68     -0.296540  9 H  s                 54     -0.205470  7 O  pz         
     4     -0.185759  1 O  px                55      0.182997  7 O  px         

 Vector   10  Occ=2.000000D+00  E=-6.022039D-01
              MO Center= -7.7D-01,  4.4D-01, -9.2D-01, r^2= 1.4D+00
   Bfn.  Coefficient  Atom+Function         Bfn.  Coefficient  Atom+Function  
  ----- ------------  ---------------      ----- ------------  ---------------
     4      0.414022  1 O  px                 3     -0.328099  1 O  s          
     6      0.284262  1 O  pz                 7      0.267233  1 O  px         
    15      0.200182  2 H  s                  9      0.193381  1 O  pz         
    20      0.193924  3 H  s          

 Vector   11  Occ=2.000000D+00  E=-5.790208D-01
              MO Center=  3.1D+00, -2.0D-01,  3.7D-01, r^2= 6.9D-01
   Bfn.  Coefficient  Atom+Function         Bfn.  Coefficient  Atom+Function  
  ----- ------------  ---------------      ----- ------------  ---------------
    29      0.493303  4 O  py                27      0.342866  4 O  s          
    32      0.332739  4 O  py                30     -0.230824  4 O  pz         
    44     -0.212653  6 H  s                 39     -0.199113  5 H  s          
    33     -0.157245  4 O  pz         

 Vector   12  Occ=2.000000D+00  E=-5.431693D-01
              MO Center= -1.8D+00,  6.6D-02, -3.6D-02, r^2= 2.6D+00
   Bfn.  Coefficient  Atom+Function         Bfn.  Coefficient  Atom+Function  
  ----- ------------  ---------------      ----- ------------  ---------------
     6      0.344199  1 O  pz                53      0.331428  7 O  py         
    51     -0.279449  7 O  s                  9      0.263384  1 O  pz         
    56      0.225587  7 O  py                68      0.210949  9 H  s          
    54     -0.197566  7 O  pz         

 Vector   13  Occ=2.000000D+00  E=-5.079421D-01
              MO Center=  3.1D+00, -2.6D-01,  3.9D-01, r^2= 6.6D-01
   Bfn.  Coefficient  Atom+Function         Bfn.  Coefficient  Atom+Function  
  ----- ------------  ---------------      ----- ------------  ---------------
    30      0.482909  4 O  pz                33      0.378566  4 O  pz         
    28     -0.337398  4 O  px                31     -0.266141  4 O  px         
    29      0.225865  4 O  py                32      0.177355  4 O  py         

 Vector   14  Occ=2.000000D+00  E=-5.053841D-01
              MO Center= -1.4D+00,  1.6D-01, -2.8D-01, r^2= 2.6D+00
   Bfn.  Coefficient  Atom+Function         Bfn.  Coefficient  Atom+Function  
  ----- ------------  ---------------      ----- ------------  ---------------
     6      0.349839  1 O  pz                 4     -0.308727  1 O  px         
    54      0.299636  7 O  pz                 9      0.277839  1 O  pz         
    53     -0.242835  7 O  py                 7     -0.229626  1 O  px         
    57      0.212557  7 O  pz                63     -0.175382  8 H  s          
    56     -0.174437  7 O  py                51      0.152325  7 O  s          

 Vector   15  Occ=2.000000D+00  E=-4.585347D-01
              MO Center= -2.6D+00, -1.8D-01,  6.1D-01, r^2= 6.3D-01
   Bfn.  Coefficient  Atom+Function         Bfn.  Coefficient  Atom+Function  
  ----- ------------  ---------------      ----- ------------  ---------------
    54      0.402137  7 O  pz                53      0.391716  7 O  py         
    57      0.321970  7 O  pz                56      0.315028  7 O  py         
    52      0.275019  7 O  px                55      0.222099  7 O  px         

 Vector   16  Occ=0.000000D+00  E= 1.336199D-01
              MO Center=  1.2D+00, -4.8D-01, -1.9D-01, r^2= 4.9D+00
   Bfn.  Coefficient  Atom+Function         Bfn.  Coefficient  Atom+Function  
  ----- ------------  ---------------      ----- ------------  ---------------
    45      0.737219  6 H  s                 21      0.655916  3 H  s          
    27     -0.616775  4 O  s                  3     -0.612158  1 O  s          
    16      0.381797  2 H  s                 40      0.259365  5 H  s          
    32      0.221499  4 O  py                 7     -0.189096  1 O  px         
    69      0.160217  9 H  s          

 Vector   17  Occ=0.000000D+00  E= 1.972591D-01
              MO Center=  1.8D+00, -2.4D-01,  5.7D-01, r^2= 1.0D+01
   Bfn.  Coefficient  Atom+Function         Bfn.  Coefficient  Atom+Function  
  ----- ------------  ---------------      ----- ------------  ---------------
    40      1.019371  5 H  s                 27     -0.714297  4 O  s          
     3      0.506479  1 O  s                 16     -0.474598  2 H  s          
    69     -0.454621  9 H  s                 51      0.355234  7 O  s          
    21     -0.329212  3 H  s                 45      0.196557  6 H  s          
    33     -0.192097  4 O  pz                32      0.177894  4 O  py         

 Vector   18  Occ=0.000000D+00  E= 2.224820D-01
              MO Center=  6.2D-02,  6.2D-02,  2.7D-01, r^2= 1.2D+01
   Bfn.  Coefficient  Atom+Function         Bfn.  Coefficient  Atom+Function  
  ----- ------------  ---------------      ----- ------------  ---------------
    40      0.882712  5 H  s                 16      0.849324  2 H  s          
    69      0.774141  9 H  s                 21     -0.739201  3 H  s          
    45     -0.635133  6 H  s                 51     -0.503156  7 O  s          
     8     -0.344551  1 O  py                31     -0.313357  4 O  px         
    33     -0.198136  4 O  pz                55      0.174542  7 O  px         

 Vector   19  Occ=0.000000D+00  E= 2.375665D-01
              MO Center= -1.7D+00,  7.8D-01,  1.4D-01, r^2= 6.6D+00
   Bfn.  Coefficient  Atom+Function         Bfn.  Coefficient  Atom+Function  
  ----- ------------  ---------------      ----- ------------  ---------------
    16      1.139492  2 H  s                 69     -1.046414  9 H  s          
    51      0.617179  7 O  s                 21     -0.506222  3 H  s          
     3     -0.367537  1 O  s                  8     -0.331105  1 O  py         
    55     -0.277070  7 O  px                45     -0.208219  6 H  s          
     9     -0.194788  1 O  pz                56      0.191126  7 O  py         

 Vector   20  Occ=0.000000D+00  E= 2.843307D-01
              MO Center=  1.3D+00, -8.0D-01, -1.3D-01, r^2= 6.7D+00
   Bfn.  Coefficient  Atom+Function         Bfn.  Coefficient  Atom+Function  
  ----- ------------  ---------------      ----- ------------  ---------------
    45      1.280845  6 H  s                 21     -1.149977  3 H  s          
    40     -0.898345  5 H  s                 16      0.487036  2 H  s          
    31      0.439078  4 O  px                 3      0.435728  1 O  s          
     8     -0.383849  1 O  py                69      0.332602  9 H  s          
    33      0.219359  4 O  pz                27     -0.201720  4 O  s          

 Vector   21  Occ=0.000000D+00  E= 3.937015D-01
              MO Center= -1.9D+00,  1.9D-01, -1.9D-01, r^2= 4.0D+00
   Bfn.  Coefficient  Atom+Function         Bfn.  Coefficient  Atom+Function  
  ----- ------------  ---------------      ----- ------------  ---------------
    64      2.134040  8 H  s                 69     -0.973713  9 H  s          
    51     -0.595179  7 O  s                 55     -0.561151  7 O  px         
    21     -0.487444  3 H  s                 57      0.403505  7 O  pz         
     7      0.380382  1 O  px                16     -0.344153  2 H  s          
    45      0.266466  6 H  s                  4      0.217992  1 O  px         

 Vector   22  Occ=0.000000D+00  E= 7.383021D-01
              MO Center= -3.0D-01,  4.0D-01, -7.6D-01, r^2= 2.3D+00
   Bfn.  Coefficient  Atom+Function         Bfn.  Coefficient  Atom+Function  
  ----- ------------  ---------------      ----- ------------  ---------------
    15      0.954868  2 H  s                 20     -0.878261  3 H  s          
    16     -0.701624  2 H  s                 21      0.685361  3 H  s          
     8     -0.409590  1 O  py                68      0.240160  9 H  s          
     5     -0.217738  1 O  py                45     -0.177662  6 H  s          
    44      0.166250  6 H  s                  9     -0.161002  1 O  pz         

 Vector   23  Occ=0.000000D+00  E= 7.591544D-01
              MO Center=  2.2D+00, -4.7D-01,  2.1D-01, r^2= 3.9D+00
   Bfn.  Coefficient  Atom+Function         Bfn.  Coefficient  Atom+Function  
  ----- ------------  ---------------      ----- ------------  ---------------
    44      0.905179  6 H  s                 39     -0.766762  5 H  s          
    45     -0.641410  6 H  s                 40      0.550655  5 H  s          
    20      0.462699  3 H  s                 31      0.350471  4 O  px         
    64      0.228963  8 H  s                 15      0.201240  2 H  s          
    21     -0.201046  3 H  s                 33      0.200463  4 O  pz         

 Vector   24  Occ=0.000000D+00  E= 8.029234D-01
              MO Center= -2.1D+00,  6.7D-02,  1.3D-01, r^2= 2.4D+00
   Bfn.  Coefficient  Atom+Function         Bfn.  Coefficient  Atom+Function  
  ----- ------------  ---------------      ----- ------------  ---------------
    64     -1.182654  8 H  s                 63      1.148813  8 H  s          
    69      0.501874  9 H  s                 68     -0.471331  9 H  s          
     3      0.279078  1 O  s                 55     -0.253595  7 O  px         
    51      0.199160  7 O  s                 52     -0.184603  7 O  px         
    21      0.174733  3 H  s                  7     -0.171532  1 O  px         

 Vector   25  Occ=0.000000D+00  E= 8.233570D-01
              MO Center=  3.1D+00, -6.6D-01,  7.1D-01, r^2= 2.8D+00
   Bfn.  Coefficient  Atom+Function         Bfn.  Coefficient  Atom+Function  
  ----- ------------  ---------------      ----- ------------  ---------------
    39      0.941829  5 H  s                 40     -0.662256  5 H  s          
    44      0.589868  6 H  s                 45     -0.394952  6 H  s          
    27      0.298186  4 O  s                 29      0.274556  4 O  py         
    26     -0.244893  4 O  s                 41      0.241855  5 H  px         
    46     -0.215413  6 H  px                20      0.197504  3 H  s          


 center of mass
 --------------
 x =  -0.02285938 y =   0.01313902 z =  -0.01117875

 moments of inertia (a.u.)
 ------------------
         133.292283539606          48.706786744725         -16.318187019729
          48.706786744725        1183.731657645709          44.326266108321
         -16.318187019729          44.326266108321        1107.119604802859

  Mulliken analysis of the total density
  --------------------------------------

    Atom       Charge   Shell Charges
 -----------   ------   -------------------------------------------------------
    1 O    8     8.31   2.00  0.84  0.84  2.81  1.81  0.01
    2 H    1     0.82   0.67  0.07  0.08
    3 H    1     0.82   0.67  0.07  0.08
    4 O    8     8.33   2.00  0.83  0.84  2.81  1.83  0.01
    5 H    1     0.83   0.68  0.07  0.09
    6 H    1     0.84   0.67  0.08  0.08
    7 O    8     8.39   2.00  0.83  0.84  2.82  1.88  0.01
    8 H    1     0.81   0.64  0.09  0.09
    9 H    1     0.85   0.69  0.08  0.08

       Multipole analysis of the density wrt the origin
       ------------------------------------------------

     L   x y z        total         open         nuclear
     -   - - -        -----         ----         -------
     0   0 0 0     -0.000000      0.000000     30.000000

     1   1 0 0      0.814282      0.000000     -0.000000
     1   0 1 0     -0.256613      0.000000     -0.000000
     1   0 0 1      0.146935      0.000000      0.000000

     2   2 0 0    -12.714532      0.000000    602.365322
     2   1 1 0     -6.764837      0.000000    -35.010972
     2   1 0 1      3.885748      0.000000     12.793769
     2   0 2 0    -12.055292      0.000000     18.867242
     2   0 1 1      0.921452      0.000000    -23.508820
     2   0 0 2    -15.965960      0.000000     57.301714


 Parallel integral file used      35 records with       0 large values

                              NWChem Gradients Module
                              -----------------------



  wavefunction    =   RHF     



                         RHF ENERGY GRADIENTS

    atom               coordinates                        gradient
                 x          y          z           x          y          z
   1 O      -1.037503   0.913605  -1.999004   -0.036177   0.007482  -0.017042
   2 H       0.008871   1.965551  -0.906486    0.015555   0.012895   0.017001
   3 H      -0.183943  -0.713146  -1.905889    0.014070  -0.022500   0.004387
   4 O       5.826252  -0.447602   0.730403    0.013637   0.031466  -0.006208
   5 H       7.057109  -1.104800   1.905273    0.015072  -0.005656   0.012925
   6 H       4.592065  -1.818028   0.512674   -0.027998  -0.025390  -0.006879
   7 O      -4.944458  -0.376505   1.192457   -0.001222  -0.020478   0.019945
   8 H      -3.814836   0.253876  -0.146054    0.024523   0.010693  -0.025401
   9 H      -6.413596   0.700565   1.149643   -0.017460   0.011489   0.001272

                 ----------------------------------------
                 |  Time  |  1-e(secs)   |  2-e(secs)   |
                 ----------------------------------------
                 |  CPU   |       0.01   |       0.59   |
                 ----------------------------------------
                 |  WALL  |       0.01   |       0.59   |
                 ----------------------------------------

 Task  times  cpu:        1.5s     wall:        1.5s


                                NWChem Input Module
                                -------------------


 Summary of allocated global arrays
-----------------------------------
  No active global arrays



                         GA Statistics for process    0
                         ------------------------------

       create   destroy   get      put      acc     scatter   gather  read&inc
calls:  249      249     8489     3840     3497        0        0      165     
number of processes/call 0.00e+00 0.00e+00 0.00e+00 0.00e+00 0.00e+00
bytes total:             1.43e+07 8.59e+06 2.03e+06 0.00e+00 0.00e+00 1.32e+03
bytes remote:            0.00e+00 0.00e+00 0.00e+00 0.00e+00 0.00e+00 0.00e+00
Max memory consumed for GA by this process: 539136 bytes

MA_summarize_allocated_blocks: starting scan ...
MA_summarize_allocated_blocks: scan completed: 0 heap blocks, 0 stack blocks
MA usage statistics:

	allocation statistics:
					      heap	     stack
					      ----	     -----
	current number of blocks	         0	         0
	maximum number of blocks	        18	        28
	current total bytes		         0	         0
	maximum total bytes		  57703112	  26171432
	maximum total K-bytes		     57704	     26172
	maximum total M-bytes		        58	        27


                                     CITATION
                                     --------
                Please cite the following reference when publishing
                           results obtained with NWChem:

          E. Aprà, E. J. Bylaska, W. A. de Jong, N. Govind, K. Kowalski,
       T. P. Straatsma, M. Valiev, H. J. J. van Dam, Y. Alexeev, J. Anchell,
       V. Anisimov, F. W. Aquino, R. Atta-Fynn, J. Autschbach, N. P. Bauman,
     J. C. Becca, D. E. Bernholdt, K. Bhaskaran-Nair, S. Bogatko, P. Borowski,
        J. Boschen, J. Brabec, A. Bruner, E. Cauët, Y. Chen, G. N. Chuev,
      C. J. Cramer, J. Daily, M. J. O. Deegan, T. H. Dunning Jr., M. Dupuis,
   K. G. Dyall, G. I. Fann, S. A. Fischer, A. Fonari, H. Früchtl, L. Gagliardi,
      J. Garza, N. Gawande, S. Ghosh, K. Glaesemann, A. W. Götz, J. Hammond,
       V. Helms, E. D. Hermes, K. Hirao, S. Hirata, M. Jacquelin, L. Jensen,
   B. G. Johnson, H. Jónsson, R. A. Kendall, M. Klemm, R. Kobayashi, V. Konkov,
      S. Krishnamoorthy, M. Krishnan, Z. Lin, R. D. Lins, R. J. Littlefield,
      A. J. Logsdail, K. Lopata, W. Ma, A. V. Marenich, J. Martin del Campo,
   D. Mejia-Rodriguez, J. E. Moore, J. M. Mullin, T. Nakajima, D. R. Nascimento,
    J. A. Nichols, P. J. Nichols, J. Nieplocha, A. Otero-de-la-Roza, B. Palmer,
    A. Panyala, T. Pirojsirikul, B. Peng, R. Peverati, J. Pittner, L. Pollack,
   R. M. Richard, P. Sadayappan, G. C. Schatz, W. A. Shelton, D. W. Silverstein,
   D. M. A. Smith, T. A. Soares, D. Song, M. Swart, H. L. Taylor, G. S. Thomas,
            V. Tipparaju, D. G. Truhlar, K. Tsemekhman, T. Van Voorhis,
     Á. Vázquez-Mayagoitia, P. Verma, O. Villa, A. Vishnu, K. D. Vogiatzis,
        D. Wang, J. H. Weare, M. J. Williamson, T. L. Windus, K. Woliński,
        A. T. Wong, Q. Wu, C. Yang, Q. Yu, M. Zacharias, Z. Zhang, Y. Zhao,
                                and R. J. Harrison
                        "NWChem: Past, present, and future
                         J. Chem. Phys. 152, 184102 (2020)
                               doi:10.1063/5.0004997

                                      AUTHORS
                                      -------
     E. Apra, E. J. Bylaska, N. Govind, K. Kowalski, M. Valiev, W. A. de Jong,
      T. P. Straatsma, H. J. J. van Dam, D. Wang, T. L. Windus, N. P. Bauman,
       A. Panyala, J. Hammond, J. Autschbach, K. Bhaskaran-Nair, J. Brabec,
    K. Lopata, S. A. Fischer, S. Krishnamoorthy, M. Jacquelin, W. Ma, M. Klemm,
       O. Villa, Y. Chen, V. Anisimov, F. Aquino, S. Hirata, M. T. Hackler,
           Eric Hermes, L. Jensen, J. E. Moore, J. C. Becca, V. Konjkov,
            D. Mejia-Rodriguez, T. Risthaus, M. Malagoli, A. Marenich,
   A. Otero-de-la-Roza, J. Mullin, P. Nichols, R. Peverati, J. Pittner, Y. Zhao,
        P.-D. Fan, A. Fonari, M. J. Williamson, R. J. Harrison, J. R. Rehr,
      M. Dupuis, D. Silverstein, D. M. A. Smith, J. Nieplocha, V. Tipparaju,
      M. Krishnan, B. E. Van Kuiken, A. Vazquez-Mayagoitia, M. Swart, Q. Wu,
   T. Van Voorhis, A. A. Auer, M. Nooijen, L. D. Crosby, E. Brown, G. Cisneros,
     G. I. Fann, H. Fruchtl, J. Garza, K. Hirao, R. A. Kendall, J. A. Nichols,
       K. Tsemekhman, K. Wolinski, J. Anchell, D. E. Bernholdt, P. Borowski,
       T. Clark, D. Clerc, H. Dachsel, M. J. O. Deegan, K. Dyall, D. Elwood,
      E. Glendening, M. Gutowski, A. C. Hess, J. Jaffe, B. G. Johnson, J. Ju,
        R. Kobayashi, R. Kutteh, Z. Lin, R. Littlefield, X. Long, B. Meng,
      T. Nakajima, S. Niu, L. Pollack, M. Rosing, K. Glaesemann, G. Sandrone,
      M. Stave, H. Taylor, G. Thomas, J. H. van Lenthe, A. T. Wong, Z. Zhang.

 Total times  cpu:        1.5s     wall:        1.6s
