 argument  1 = nwchem/input_3_20_at_worker_3.nw



============================== echo of input deck ==============================
echo
memory 1000 mb
geometry noautosym noautoz
O 0.57630762 -1.69154092 -0.42866929
H 0.43417462 -2.64420081 -0.48595869
H 0.08911917 -1.3894609 0.38589939
O 2.81159896 -0.10395953 -0.18689424
H 3.46294039 -0.4517338 0.43482057
H 2.1584952 -0.82915775 -0.30211113
O -2.88801599 -0.0663369 0.05761427
H -2.29024563 0.26724676 -0.65069518
H -3.66545029 0.50362404 0.03495814
end
basis spherical
 * library cc-pvdz
end
task scf gradient
================================================================================


                                         
                                         


             Northwest Computational Chemistry Package (NWChem) 7.0.2
             --------------------------------------------------------


                    Environmental Molecular Sciences Laboratory
                       Pacific Northwest National Laboratory
                                Richland, WA 99352

                              Copyright (c) 1994-2020
                       Pacific Northwest National Laboratory
                            Battelle Memorial Institute

             NWChem is an open-source computational chemistry package
                        distributed under the terms of the
                      Educational Community License (ECL) 2.0
             A copy of the license is included with this distribution
                              in the LICENSE.TXT file

                                  ACKNOWLEDGMENT
                                  --------------

            This software and its documentation were developed at the
            EMSL at Pacific Northwest National Laboratory, a multiprogram
            national laboratory, operated for the U.S. Department of Energy
            by Battelle under Contract Number DE-AC05-76RL01830. Support
            for this work was provided by the Department of Energy Office
            of Biological and Environmental Research, Office of Basic
            Energy Sciences, and the Office of Advanced Scientific Computing.


           Job information
           ---------------

    hostname        = pop-os
    program         = nwchem
    date            = Thu Jul  8 18:19:52 2021

    compiled        = Wed_Jan_06_19:48:08_2021
    source          = /build/nwchem-ksKH2r/nwchem-7.0.2
    nwchem branch   = 7.0.2
    nwchem revision = N/A
    ga revision     = 5.7.1
    use scalapack   = T
    input           = nwchem/input_3_20_at_worker_3.nw
    prefix          = input_3_20_at_worker_3.
    data base       = ./input_3_20_at_worker_3.db
    status          = startup
    nproc           =        1
    time left       =     -1s



           Memory information
           ------------------

    heap     =   32768000 doubles =    250.0 Mbytes
    stack    =   32767997 doubles =    250.0 Mbytes
    global   =   65536000 doubles =    500.0 Mbytes (distinct from heap & stack)
    total    =  131071997 doubles =   1000.0 Mbytes
    verify   = yes
    hardfail = no 


           Directory information
           ---------------------

  0 permanent = .
  0 scratch   = .




                                NWChem Input Module
                                -------------------



 Scaling coordinates for geometry "geometry" by  1.889725989
 (inverse scale =  0.529177249)



                             Geometry "geometry" -> ""
                             -------------------------

 Output coordinates in angstroms (scale by  1.889725989 to convert to a.u.)

  No.       Tag          Charge          X              Y              Z
 ---- ---------------- ---------- -------------- -------------- --------------
    1 O                    8.0000     0.43670235    -1.04359488    -0.26044659
    2 H                    1.0000     0.29456935    -1.99625477    -0.31773599
    3 H                    1.0000    -0.05048610    -0.74151486     0.55412209
    4 O                    8.0000     2.67199369     0.54398651    -0.01867154
    5 H                    1.0000     3.32333512     0.19621224     0.60304327
    6 H                    1.0000     2.01888993    -0.18121171    -0.13388843
    7 O                    8.0000    -3.02762126     0.58160914     0.22583697
    8 H                    1.0000    -2.42985090     0.91519280    -0.48247248
    9 H                    1.0000    -3.80505556     1.15157008     0.20318084

      Atomic Mass 
      ----------- 

      O                 15.994910
      H                  1.007825


 Effective nuclear repulsion energy (a.u.)      69.2873016792

            Nuclear Dipole moment (a.u.) 
            ----------------------------
        X                 Y               Z
 ---------------- ---------------- ----------------
    -0.0000000000    -0.0000000000    -0.0000000000


            XYZ format geometry
            -------------------
     9
 geometry
 O                     0.43670235    -1.04359488    -0.26044659
 H                     0.29456935    -1.99625477    -0.31773599
 H                    -0.05048610    -0.74151486     0.55412209
 O                     2.67199369     0.54398651    -0.01867154
 H                     3.32333512     0.19621224     0.60304327
 H                     2.01888993    -0.18121171    -0.13388843
 O                    -3.02762126     0.58160914     0.22583697
 H                    -2.42985090     0.91519280    -0.48247248
 H                    -3.80505556     1.15157008     0.20318084

 ==============================================================================
                                internuclear distances
 ------------------------------------------------------------------------------
       center one      |      center two      | atomic units |  angstroms
 ------------------------------------------------------------------------------
    2 H                |   1 O                |     1.82341  |     0.96491
    3 H                |   1 O                |     1.88227  |     0.99606
    5 H                |   4 O                |     1.82407  |     0.96526
    6 H                |   4 O                |     1.85707  |     0.98272
    8 H                |   7 O                |     1.86146  |     0.98504
    9 H                |   7 O                |     1.82216  |     0.96425
 ------------------------------------------------------------------------------
                         number of included internuclear distances:          6
 ==============================================================================



 ==============================================================================
                                 internuclear angles
 ------------------------------------------------------------------------------
        center 1       |       center 2       |       center 3       |  degrees
 ------------------------------------------------------------------------------
    2 H                |   1 O                |   3 H                |   106.02
    5 H                |   4 O                |   6 H                |   104.96
    8 H                |   7 O                |   9 H                |   105.80
 ------------------------------------------------------------------------------
                            number of included internuclear angles:          3
 ==============================================================================





 Summary of "ao basis" -> "" (spherical)
 ------------------------------------------------------------------------------
       Tag                 Description            Shells   Functions and Types
 ---------------- ------------------------------  ------  ---------------------
 *                          cc-pvdz                   on all atoms 


                      Basis "ao basis" -> "ao basis" (spherical)
                      -----
  O (Oxygen)
  ----------
            Exponent  Coefficients 
       -------------- ---------------------------------------------------------
  1 S  1.17200000E+04  0.000710
  1 S  1.75900000E+03  0.005470
  1 S  4.00800000E+02  0.027837
  1 S  1.13700000E+02  0.104800
  1 S  3.70300000E+01  0.283062
  1 S  1.32700000E+01  0.448719
  1 S  5.02500000E+00  0.270952
  1 S  1.01300000E+00  0.015458

  2 S  1.17200000E+04 -0.000160
  2 S  1.75900000E+03 -0.001263
  2 S  4.00800000E+02 -0.006267
  2 S  1.13700000E+02 -0.025716
  2 S  3.70300000E+01 -0.070924
  2 S  1.32700000E+01 -0.165411
  2 S  5.02500000E+00 -0.116955
  2 S  1.01300000E+00  0.557368

  3 S  3.02300000E-01  1.000000

  4 P  1.77000000E+01  0.043018
  4 P  3.85400000E+00  0.228913
  4 P  1.04600000E+00  0.508728

  5 P  2.75300000E-01  1.000000

  6 D  1.18500000E+00  1.000000

  H (Hydrogen)
  ------------
            Exponent  Coefficients 
       -------------- ---------------------------------------------------------
  1 S  1.30100000E+01  0.019685
  1 S  1.96200000E+00  0.137977
  1 S  4.44600000E-01  0.478148

  2 S  1.22000000E-01  1.000000

  3 P  7.27000000E-01  1.000000



 Summary of "ao basis" -> "ao basis" (spherical)
 ------------------------------------------------------------------------------
       Tag                 Description            Shells   Functions and Types
 ---------------- ------------------------------  ------  ---------------------
 O                          cc-pvdz                  6       14   3s2p1d
 H                          cc-pvdz                  3        5   2s1p


                                 NWChem SCF Module
                                 -----------------



  ao basis        = "ao basis"
  functions       =    72
  atoms           =     9
  closed shells   =    15
  open shells     =     0
  charge          =   0.00
  wavefunction    = RHF 
  input vectors   = atomic
  output vectors  = ./input_3_20_at_worker_3.movecs
  use symmetry    = F
  symmetry adapt  = F


 Summary of "ao basis" -> "ao basis" (spherical)
 ------------------------------------------------------------------------------
       Tag                 Description            Shells   Functions and Types
 ---------------- ------------------------------  ------  ---------------------
 O                          cc-pvdz                  6       14   3s2p1d
 H                          cc-pvdz                  3        5   2s1p



 Forming initial guess at       0.0s


      Superposition of Atomic Density Guess
      -------------------------------------

 Sum of atomic energies:        -227.28668731

      Non-variational initial energy
      ------------------------------

 Total energy =    -227.726887
 1-e energy   =    -448.925266
 2-e energy   =     151.911078
 HOMO         =      -0.460981
 LUMO         =       0.055406


 Starting SCF solution at       0.2s



 ----------------------------------------------
         Quadratically convergent ROHF

 Convergence threshold     :          1.000E-04
 Maximum no. of iterations :           30
 Final Fock-matrix accuracy:          1.000E-07
 ----------------------------------------------


 Integral file          = ./input_3_20_at_worker_3.aoints.0
 Record size in doubles =  65536        No. of integs per rec  =  43688
 Max. records in memory =    110        Max. records in file   = 400266
 No. of bits per label  =      8        No. of bits per value  =     64


 #quartets = 1.249D+05 #integrals = 1.442D+06 #direct =  0.0% #cached =100.0%


              iter       energy          gnorm     gmax       time
             ----- ------------------- --------- --------- --------
                 1     -227.9869910985  1.38D+00  2.33D-01      0.6
                 2     -228.0778099039  2.98D-01  7.05D-02      0.7
                 3     -228.0847493059  2.52D-02  5.98D-03      0.8
                 4     -228.0848015468  4.39D-04  7.71D-05      0.9
                 5     -228.0848015597  7.17D-06  1.39D-06      1.0


       Final RHF  results 
       ------------------ 

         Total SCF energy =   -228.084801559706
      One-electron energy =   -452.999504063070
      Two-electron energy =    155.627400824118
 Nuclear repulsion energy =     69.287301679246

        Time for solution =      0.7s


             Final eigenvalues
             -----------------

              1      
    1  -20.5853
    2  -20.5583
    3  -20.5101
    4   -1.3577
    5   -1.3326
    6   -1.2901
    7   -0.7217
    8   -0.6978
    9   -0.6682
   10   -0.5865
   11   -0.5673
   12   -0.5398
   13   -0.5054
   14   -0.4973
   15   -0.4542
   16    0.1527
   17    0.1904
   18    0.2321
   19    0.2451
   20    0.2651
   21    0.3893
   22    0.7377
   23    0.7825
   24    0.8025
   25    0.8279

                       ROHF Final Molecular Orbital Analysis
                       -------------------------------------

 Vector    4  Occ=2.000000D+00  E=-1.357708D+00
              MO Center=  3.9D-01, -1.1D+00, -1.6D-01, r^2= 5.9D-01
   Bfn.  Coefficient  Atom+Function         Bfn.  Coefficient  Atom+Function  
  ----- ------------  ---------------      ----- ------------  ---------------
     2      0.443683  1 O  s                  3      0.395473  1 O  s          
    15      0.187057  2 H  s                 20      0.170846  3 H  s          

 Vector    5  Occ=2.000000D+00  E=-1.332618D+00
              MO Center= -3.1D+00,  7.1D-01,  1.3D-01, r^2= 5.1D-01
   Bfn.  Coefficient  Atom+Function         Bfn.  Coefficient  Atom+Function  
  ----- ------------  ---------------      ----- ------------  ---------------
    50      0.444842  7 O  s                 51      0.389779  7 O  s          
    68      0.191146  9 H  s                 63      0.179668  8 H  s          

 Vector    6  Occ=2.000000D+00  E=-1.290129D+00
              MO Center=  2.7D+00,  3.8D-01,  5.5D-02, r^2= 6.1D-01
   Bfn.  Coefficient  Atom+Function         Bfn.  Coefficient  Atom+Function  
  ----- ------------  ---------------      ----- ------------  ---------------
    26      0.440478  4 O  s                 27      0.388731  4 O  s          
    39      0.191237  5 H  s                 44      0.175957  6 H  s          

 Vector    7  Occ=2.000000D+00  E=-7.217052D-01
              MO Center=  3.7D-01, -1.1D+00, -1.2D-01, r^2= 1.0D+00
   Bfn.  Coefficient  Atom+Function         Bfn.  Coefficient  Atom+Function  
  ----- ------------  ---------------      ----- ------------  ---------------
     5      0.411206  1 O  py                15     -0.332172  2 H  s          
    20      0.294194  3 H  s                  6      0.247151  1 O  pz         
     8      0.194707  1 O  py         

 Vector    8  Occ=2.000000D+00  E=-6.978078D-01
              MO Center= -3.0D+00,  7.4D-01,  8.5D-02, r^2= 8.8D-01
   Bfn.  Coefficient  Atom+Function         Bfn.  Coefficient  Atom+Function  
  ----- ------------  ---------------      ----- ------------  ---------------
    52      0.433079  7 O  px                68     -0.328507  9 H  s          
    63      0.317308  8 H  s                 54     -0.204646  7 O  pz         
    55      0.202176  7 O  px         

 Vector    9  Occ=2.000000D+00  E=-6.681689D-01
              MO Center=  2.2D+00,  6.9D-02,  2.3D-02, r^2= 1.8D+00
   Bfn.  Coefficient  Atom+Function         Bfn.  Coefficient  Atom+Function  
  ----- ------------  ---------------      ----- ------------  ---------------
    28      0.362895  4 O  px                44     -0.292391  6 H  s          
    39      0.283134  5 H  s                  4     -0.199078  1 O  px         
    30      0.195822  4 O  pz                31      0.166823  4 O  px         

 Vector   10  Occ=2.000000D+00  E=-5.865374D-01
              MO Center=  9.2D-01, -7.2D-01, -2.0D-01, r^2= 2.0D+00
   Bfn.  Coefficient  Atom+Function         Bfn.  Coefficient  Atom+Function  
  ----- ------------  ---------------      ----- ------------  ---------------
     6     -0.321806  1 O  pz                 3      0.306434  1 O  s          
     5      0.278336  1 O  py                 4      0.246424  1 O  px         
     9     -0.216191  1 O  pz                20     -0.182546  3 H  s          
     8      0.181380  1 O  py                15     -0.182057  2 H  s          
    39      0.177536  5 H  s                 28      0.175413  4 O  px         

 Vector   11  Occ=2.000000D+00  E=-5.673458D-01
              MO Center= -3.0D+00,  5.5D-01,  2.5D-01, r^2= 7.3D-01
   Bfn.  Coefficient  Atom+Function         Bfn.  Coefficient  Atom+Function  
  ----- ------------  ---------------      ----- ------------  ---------------
    53      0.417890  7 O  py                54     -0.340011  7 O  pz         
    51     -0.338014  7 O  s                 56      0.284981  7 O  py         
    57     -0.231170  7 O  pz                63      0.209701  8 H  s          
    68      0.197247  9 H  s          

 Vector   12  Occ=2.000000D+00  E=-5.397812D-01
              MO Center=  1.5D+00, -2.4D-01, -1.5D-01, r^2= 2.6D+00
   Bfn.  Coefficient  Atom+Function         Bfn.  Coefficient  Atom+Function  
  ----- ------------  ---------------      ----- ------------  ---------------
    29     -0.318404  4 O  py                 6      0.298288  1 O  pz         
     4      0.293242  1 O  px                27     -0.248110  4 O  s          
     7      0.237822  1 O  px                 9      0.231486  1 O  pz         
    32     -0.221970  4 O  py                30      0.189806  4 O  pz         
    39      0.168088  5 H  s          

 Vector   13  Occ=2.000000D+00  E=-5.054362D-01
              MO Center=  1.5D+00, -2.5D-01, -1.4D-01, r^2= 2.6D+00
   Bfn.  Coefficient  Atom+Function         Bfn.  Coefficient  Atom+Function  
  ----- ------------  ---------------      ----- ------------  ---------------
     4      0.408855  1 O  px                29      0.382626  4 O  py         
     7      0.313965  1 O  px                32      0.270390  4 O  py         
     6      0.207118  1 O  pz                27      0.183640  4 O  s          
    44     -0.170443  6 H  s                  9      0.166396  1 O  pz         

 Vector   14  Occ=2.000000D+00  E=-4.972627D-01
              MO Center= -3.0D+00,  6.0D-01,  2.1D-01, r^2= 6.0D-01
   Bfn.  Coefficient  Atom+Function         Bfn.  Coefficient  Atom+Function  
  ----- ------------  ---------------      ----- ------------  ---------------
    54      0.413847  7 O  pz                53      0.390715  7 O  py         
    57      0.325612  7 O  pz                56      0.307542  7 O  py         
    52      0.273131  7 O  px                55      0.215781  7 O  px         

 Vector   15  Occ=2.000000D+00  E=-4.542168D-01
              MO Center=  2.7D+00,  5.2D-01, -1.2D-02, r^2= 6.3D-01
   Bfn.  Coefficient  Atom+Function         Bfn.  Coefficient  Atom+Function  
  ----- ------------  ---------------      ----- ------------  ---------------
    30      0.479497  4 O  pz                33      0.382418  4 O  pz         
    28     -0.339590  4 O  px                31     -0.276200  4 O  px         
    29      0.214842  4 O  py                32      0.169980  4 O  py         

 Vector   16  Occ=0.000000D+00  E= 1.527271D-01
              MO Center= -7.2D-01, -5.1D-01,  7.1D-02, r^2= 6.5D+00
   Bfn.  Coefficient  Atom+Function         Bfn.  Coefficient  Atom+Function  
  ----- ------------  ---------------      ----- ------------  ---------------
     3      0.751229  1 O  s                 21     -0.644327  3 H  s          
    16     -0.593278  2 H  s                 51      0.533319  7 O  s          
    64     -0.525079  8 H  s                 69     -0.331072  9 H  s          
    40     -0.237022  5 H  s                 27      0.185719  4 O  s          
     9      0.172488  1 O  pz         

 Vector   17  Occ=0.000000D+00  E= 1.903630D-01
              MO Center= -1.9D+00,  1.2D-01, -8.9D-02, r^2= 9.8D+00
   Bfn.  Coefficient  Atom+Function         Bfn.  Coefficient  Atom+Function  
  ----- ------------  ---------------      ----- ------------  ---------------
    69      0.826325  9 H  s                 51     -0.777814  7 O  s          
    16     -0.736945  2 H  s                  3      0.495439  1 O  s          
    64      0.478656  8 H  s                 40     -0.315064  5 H  s          
    27      0.238176  4 O  s                 56     -0.216400  7 O  py         
     8     -0.212427  1 O  py         

 Vector   18  Occ=0.000000D+00  E= 2.321234D-01
              MO Center=  2.9D+00, -2.7D-01,  5.6D-01, r^2= 5.2D+00
   Bfn.  Coefficient  Atom+Function         Bfn.  Coefficient  Atom+Function  
  ----- ------------  ---------------      ----- ------------  ---------------
    40      1.309859  5 H  s                 27     -0.791035  4 O  s          
    16     -0.665034  2 H  s                 31     -0.270375  4 O  px         
    33     -0.267852  4 O  pz                 3      0.258712  1 O  s          
     8     -0.221940  1 O  py                21      0.200964  3 H  s          
    32      0.161640  4 O  py                69      0.160503  9 H  s          

 Vector   19  Occ=0.000000D+00  E= 2.450907D-01
              MO Center= -1.3D+00, -3.0D-01,  2.0D-01, r^2= 8.8D+00
   Bfn.  Coefficient  Atom+Function         Bfn.  Coefficient  Atom+Function  
  ----- ------------  ---------------      ----- ------------  ---------------
    21     -1.047329  3 H  s                 16      1.010061  2 H  s          
    69      0.982089  9 H  s                 64     -0.599661  8 H  s          
     8      0.390350  1 O  py                55      0.335952  7 O  px         
     9      0.280001  1 O  pz                40      0.259510  5 H  s          
    51     -0.212504  7 O  s                  5      0.175709  1 O  py         

 Vector   20  Occ=0.000000D+00  E= 2.651021D-01
              MO Center= -1.7D+00,  4.6D-01, -5.6D-02, r^2= 6.7D+00
   Bfn.  Coefficient  Atom+Function         Bfn.  Coefficient  Atom+Function  
  ----- ------------  ---------------      ----- ------------  ---------------
    64      1.327337  8 H  s                 21     -1.000081  3 H  s          
    69     -0.950461  9 H  s                 16      0.497820  2 H  s          
    55     -0.486339  7 O  px                57      0.292578  7 O  pz         
     9      0.270743  1 O  pz                 3      0.267770  1 O  s          
    40      0.261635  5 H  s                  8      0.232010  1 O  py         

 Vector   21  Occ=0.000000D+00  E= 3.892742D-01
              MO Center=  2.1D+00, -3.4D-01, -1.5D-01, r^2= 3.4D+00
   Bfn.  Coefficient  Atom+Function         Bfn.  Coefficient  Atom+Function  
  ----- ------------  ---------------      ----- ------------  ---------------
    45      2.116367  6 H  s                 40     -0.986013  5 H  s          
    27     -0.596741  4 O  s                 31      0.557759  4 O  px         
    21     -0.352087  3 H  s                  7     -0.347744  1 O  px         
    16     -0.322897  2 H  s                 32      0.323578  4 O  py         
    33      0.243268  4 O  pz                 8     -0.236312  1 O  py         

 Vector   22  Occ=0.000000D+00  E= 7.376615D-01
              MO Center= -5.0D-01, -5.4D-01,  5.7D-02, r^2= 4.3D+00
   Bfn.  Coefficient  Atom+Function         Bfn.  Coefficient  Atom+Function  
  ----- ------------  ---------------      ----- ------------  ---------------
    20      0.941764  3 H  s                 21     -0.668005  3 H  s          
    15     -0.611538  2 H  s                 63      0.501125  8 H  s          
    16      0.427340  2 H  s                 68     -0.422765  9 H  s          
    45      0.322880  6 H  s                  8     -0.316922  1 O  py         
    64     -0.268900  8 H  s                 69      0.249682  9 H  s          

 Vector   23  Occ=0.000000D+00  E= 7.824853D-01
              MO Center= -9.4D-01, -4.1D-01, -2.1D-01, r^2= 6.7D+00
   Bfn.  Coefficient  Atom+Function         Bfn.  Coefficient  Atom+Function  
  ----- ------------  ---------------      ----- ------------  ---------------
    15      0.818246  2 H  s                 63      0.709658  8 H  s          
    16     -0.576041  2 H  s                 64     -0.555196  8 H  s          
    68     -0.550414  9 H  s                 69      0.428097  9 H  s          
    45     -0.385605  6 H  s                 44      0.369629  6 H  s          
    55     -0.240782  7 O  px                 8      0.211353  1 O  py         

 Vector   24  Occ=0.000000D+00  E= 8.025184D-01
              MO Center=  2.1D+00, -9.1D-02, -3.9D-03, r^2= 3.0D+00
   Bfn.  Coefficient  Atom+Function         Bfn.  Coefficient  Atom+Function  
  ----- ------------  ---------------      ----- ------------  ---------------
    45     -0.995893  6 H  s                 44      0.962955  6 H  s          
    39     -0.744293  5 H  s                 40      0.632266  5 H  s          
    15     -0.449967  2 H  s                 16      0.365233  2 H  s          
    31      0.292546  4 O  px                 7      0.194686  1 O  px         
    28      0.187848  4 O  px                33      0.184743  4 O  pz         

 Vector   25  Occ=0.000000D+00  E= 8.278839D-01
              MO Center= -2.7D+00,  5.7D-01,  1.8D-01, r^2= 5.0D+00
   Bfn.  Coefficient  Atom+Function         Bfn.  Coefficient  Atom+Function  
  ----- ------------  ---------------      ----- ------------  ---------------
    68      0.983624  9 H  s                 69     -0.747666  9 H  s          
    20      0.478536  3 H  s                 21     -0.369535  3 H  s          
    15      0.320568  2 H  s                 70     -0.249350  9 H  px         
    51      0.236633  7 O  s                 53     -0.234493  7 O  py         
    63      0.205417  8 H  s                 50     -0.188628  7 O  s          


 center of mass
 --------------
 x =   0.02249240 y =   0.02274930 z =  -0.01478168

 moments of inertia (a.u.)
 ------------------
         133.392724415101          68.340229796245          41.143959408990
          68.340229796245        1080.969383228772         -23.035534958143
          41.143959408990         -23.035534958143        1193.114263297992

  Mulliken analysis of the total density
  --------------------------------------

    Atom       Charge   Shell Charges
 -----------   ------   -------------------------------------------------------
    1 O    8     8.33   2.00  0.83  0.85  2.81  1.82  0.01
    2 H    1     0.83   0.68  0.07  0.08
    3 H    1     0.80   0.65  0.08  0.08
    4 O    8     8.37   2.00  0.83  0.84  2.82  1.87  0.01
    5 H    1     0.86   0.69  0.08  0.08
    6 H    1     0.81   0.64  0.09  0.09
    7 O    8     8.34   2.00  0.83  0.84  2.81  1.84  0.01
    8 H    1     0.82   0.67  0.08  0.08
    9 H    1     0.84   0.68  0.07  0.09

       Multipole analysis of the density wrt the origin
       ------------------------------------------------

     L   x y z        total         open         nuclear
     -   - - -        -----         ----         -------
     0   0 0 0     -0.000000      0.000000     30.000000

     1   1 0 0     -0.803193      0.000000     -0.000000
     1   0 1 0     -0.700195      0.000000     -0.000000
     1   0 0 1      0.337373      0.000000     -0.000000

     2   2 0 0    -12.631478      0.000000    598.390440
     2   1 1 0     -7.430512      0.000000    -46.333735
     2   1 0 1      4.553267      0.000000    -17.025240
     2   0 2 0    -10.228602      0.000000     73.407341
     2   0 1 1     -0.757846      0.000000     11.792870
     2   0 0 2    -13.933529      0.000000      7.203280


 Parallel integral file used      33 records with       0 large values

                              NWChem Gradients Module
                              -----------------------



  wavefunction    =   RHF     



                         RHF ENERGY GRADIENTS

    atom               coordinates                        gradient
                 x          y          z           x          y          z
   1 O       0.825248  -1.972108  -0.492173    0.027669   0.006660  -0.036267
   2 H       0.556655  -3.772375  -0.600434   -0.000261  -0.019681  -0.003332
   3 H      -0.095405  -1.401260   1.047139   -0.020324   0.016824   0.038936
   4 O       5.049336   1.027985  -0.035284    0.002738   0.028784  -0.011297
   5 H       6.280193   0.370787   1.139587    0.014628  -0.007089   0.013886
   6 H       3.815149  -0.342440  -0.253012   -0.022673  -0.026330  -0.002057
   7 O      -5.721375   1.099082   0.426770   -0.010353  -0.020246   0.025513
   8 H      -4.591752   1.729464  -0.911741    0.026318   0.011107  -0.027327
   9 H      -7.190512   2.176152   0.383956   -0.017742   0.009972   0.001945

                 ----------------------------------------
                 |  Time  |  1-e(secs)   |  2-e(secs)   |
                 ----------------------------------------
                 |  CPU   |       0.01   |       0.55   |
                 ----------------------------------------
                 |  WALL  |       0.01   |       0.56   |
                 ----------------------------------------

 Task  times  cpu:        1.5s     wall:        1.6s


                                NWChem Input Module
                                -------------------


 Summary of allocated global arrays
-----------------------------------
  No active global arrays



                         GA Statistics for process    0
                         ------------------------------

       create   destroy   get      put      acc     scatter   gather  read&inc
calls:  249      249     8485     3839     3497        0        0      165     
number of processes/call 0.00e+00 0.00e+00 0.00e+00 0.00e+00 0.00e+00
bytes total:             1.41e+07 8.42e+06 2.03e+06 0.00e+00 0.00e+00 1.32e+03
bytes remote:            0.00e+00 0.00e+00 0.00e+00 0.00e+00 0.00e+00 0.00e+00
Max memory consumed for GA by this process: 539136 bytes

MA_summarize_allocated_blocks: starting scan ...
MA_summarize_allocated_blocks: scan completed: 0 heap blocks, 0 stack blocks
MA usage statistics:

	allocation statistics:
					      heap	     stack
					      ----	     -----
	current number of blocks	         0	         0
	maximum number of blocks	        18	        28
	current total bytes		         0	         0
	maximum total bytes		  57703080	  26171400
	maximum total K-bytes		     57704	     26172
	maximum total M-bytes		        58	        27


                                     CITATION
                                     --------
                Please cite the following reference when publishing
                           results obtained with NWChem:

          E. Aprà, E. J. Bylaska, W. A. de Jong, N. Govind, K. Kowalski,
       T. P. Straatsma, M. Valiev, H. J. J. van Dam, Y. Alexeev, J. Anchell,
       V. Anisimov, F. W. Aquino, R. Atta-Fynn, J. Autschbach, N. P. Bauman,
     J. C. Becca, D. E. Bernholdt, K. Bhaskaran-Nair, S. Bogatko, P. Borowski,
        J. Boschen, J. Brabec, A. Bruner, E. Cauët, Y. Chen, G. N. Chuev,
      C. J. Cramer, J. Daily, M. J. O. Deegan, T. H. Dunning Jr., M. Dupuis,
   K. G. Dyall, G. I. Fann, S. A. Fischer, A. Fonari, H. Früchtl, L. Gagliardi,
      J. Garza, N. Gawande, S. Ghosh, K. Glaesemann, A. W. Götz, J. Hammond,
       V. Helms, E. D. Hermes, K. Hirao, S. Hirata, M. Jacquelin, L. Jensen,
   B. G. Johnson, H. Jónsson, R. A. Kendall, M. Klemm, R. Kobayashi, V. Konkov,
      S. Krishnamoorthy, M. Krishnan, Z. Lin, R. D. Lins, R. J. Littlefield,
      A. J. Logsdail, K. Lopata, W. Ma, A. V. Marenich, J. Martin del Campo,
   D. Mejia-Rodriguez, J. E. Moore, J. M. Mullin, T. Nakajima, D. R. Nascimento,
    J. A. Nichols, P. J. Nichols, J. Nieplocha, A. Otero-de-la-Roza, B. Palmer,
    A. Panyala, T. Pirojsirikul, B. Peng, R. Peverati, J. Pittner, L. Pollack,
   R. M. Richard, P. Sadayappan, G. C. Schatz, W. A. Shelton, D. W. Silverstein,
   D. M. A. Smith, T. A. Soares, D. Song, M. Swart, H. L. Taylor, G. S. Thomas,
            V. Tipparaju, D. G. Truhlar, K. Tsemekhman, T. Van Voorhis,
     Á. Vázquez-Mayagoitia, P. Verma, O. Villa, A. Vishnu, K. D. Vogiatzis,
        D. Wang, J. H. Weare, M. J. Williamson, T. L. Windus, K. Woliński,
        A. T. Wong, Q. Wu, C. Yang, Q. Yu, M. Zacharias, Z. Zhang, Y. Zhao,
                                and R. J. Harrison
                        "NWChem: Past, present, and future
                         J. Chem. Phys. 152, 184102 (2020)
                               doi:10.1063/5.0004997

                                      AUTHORS
                                      -------
     E. Apra, E. J. Bylaska, N. Govind, K. Kowalski, M. Valiev, W. A. de Jong,
      T. P. Straatsma, H. J. J. van Dam, D. Wang, T. L. Windus, N. P. Bauman,
       A. Panyala, J. Hammond, J. Autschbach, K. Bhaskaran-Nair, J. Brabec,
    K. Lopata, S. A. Fischer, S. Krishnamoorthy, M. Jacquelin, W. Ma, M. Klemm,
       O. Villa, Y. Chen, V. Anisimov, F. Aquino, S. Hirata, M. T. Hackler,
           Eric Hermes, L. Jensen, J. E. Moore, J. C. Becca, V. Konjkov,
            D. Mejia-Rodriguez, T. Risthaus, M. Malagoli, A. Marenich,
   A. Otero-de-la-Roza, J. Mullin, P. Nichols, R. Peverati, J. Pittner, Y. Zhao,
        P.-D. Fan, A. Fonari, M. J. Williamson, R. J. Harrison, J. R. Rehr,
      M. Dupuis, D. Silverstein, D. M. A. Smith, J. Nieplocha, V. Tipparaju,
      M. Krishnan, B. E. Van Kuiken, A. Vazquez-Mayagoitia, M. Swart, Q. Wu,
   T. Van Voorhis, A. A. Auer, M. Nooijen, L. D. Crosby, E. Brown, G. Cisneros,
     G. I. Fann, H. Fruchtl, J. Garza, K. Hirao, R. A. Kendall, J. A. Nichols,
       K. Tsemekhman, K. Wolinski, J. Anchell, D. E. Bernholdt, P. Borowski,
       T. Clark, D. Clerc, H. Dachsel, M. J. O. Deegan, K. Dyall, D. Elwood,
      E. Glendening, M. Gutowski, A. C. Hess, J. Jaffe, B. G. Johnson, J. Ju,
        R. Kobayashi, R. Kutteh, Z. Lin, R. Littlefield, X. Long, B. Meng,
      T. Nakajima, S. Niu, L. Pollack, M. Rosing, K. Glaesemann, G. Sandrone,
      M. Stave, H. Taylor, G. Thomas, J. H. van Lenthe, A. T. Wong, Z. Zhang.

 Total times  cpu:        1.5s     wall:        1.6s
