 argument  1 = nwchem/input_4_2_1.nw



============================== echo of input deck ==============================
echo
memory 1000 mb
geometry noautosym noautoz
O 0.87715956 1.70409266 0.47858616
H 1.70199937 1.19722607 0.29220265
H 1.16181787 2.60891668 0.65546661
O -0.82054445 0.61636011 -1.6312343
H -0.26682713 1.17302621 -1.05309865
H -0.36885969 -0.24447946 -1.58195952
O -0.64071556 -0.48854013 1.6410419
H -0.19915392 0.37247798 1.5285638
H -1.54433112 -0.32408724 1.298356
O 2.81159896 -0.10395953 -0.18689424
H 3.46294039 -0.4517338 0.43482057
H 2.1584952 -0.82915775 -0.30211113
end
basis spherical
 * library cc-pvdz
end
task scf gradient
================================================================================


                                         
                                         


             Northwest Computational Chemistry Package (NWChem) 7.0.2
             --------------------------------------------------------


                    Environmental Molecular Sciences Laboratory
                       Pacific Northwest National Laboratory
                                Richland, WA 99352

                              Copyright (c) 1994-2020
                       Pacific Northwest National Laboratory
                            Battelle Memorial Institute

             NWChem is an open-source computational chemistry package
                        distributed under the terms of the
                      Educational Community License (ECL) 2.0
             A copy of the license is included with this distribution
                              in the LICENSE.TXT file

                                  ACKNOWLEDGMENT
                                  --------------

            This software and its documentation were developed at the
            EMSL at Pacific Northwest National Laboratory, a multiprogram
            national laboratory, operated for the U.S. Department of Energy
            by Battelle under Contract Number DE-AC05-76RL01830. Support
            for this work was provided by the Department of Energy Office
            of Biological and Environmental Research, Office of Basic
            Energy Sciences, and the Office of Advanced Scientific Computing.


           Job information
           ---------------

    hostname        = pop-os
    program         = nwchem
    date            = Tue Jul  6 14:10:00 2021

    compiled        = Wed_Jan_06_19:48:08_2021
    source          = /build/nwchem-ksKH2r/nwchem-7.0.2
    nwchem branch   = 7.0.2
    nwchem revision = N/A
    ga revision     = 5.7.1
    use scalapack   = T
    input           = nwchem/input_4_2_1.nw
    prefix          = input_4_2_1.
    data base       = ./input_4_2_1.db
    status          = startup
    nproc           =        1
    time left       =     -1s



           Memory information
           ------------------

    heap     =   32767996 doubles =    250.0 Mbytes
    stack    =   32768001 doubles =    250.0 Mbytes
    global   =   65536000 doubles =    500.0 Mbytes (distinct from heap & stack)
    total    =  131071997 doubles =   1000.0 Mbytes
    verify   = yes
    hardfail = no 


           Directory information
           ---------------------

  0 permanent = .
  0 scratch   = .




                                NWChem Input Module
                                -------------------



 Scaling coordinates for geometry "geometry" by  1.889725989
 (inverse scale =  0.529177249)



                             Geometry "geometry" -> ""
                             -------------------------

 Output coordinates in angstroms (scale by  1.889725989 to convert to a.u.)

  No.       Tag          Charge          X              Y              Z
 ---- ---------------- ---------- -------------- -------------- --------------
    1 O                    8.0000     0.27900783     1.27094732     0.38648025
    2 H                    1.0000     1.10384764     0.76408073     0.20009674
    3 H                    1.0000     0.56366614     2.17577134     0.56336070
    4 O                    8.0000    -1.41869618     0.18321477    -1.72334021
    5 H                    1.0000    -0.86497886     0.73988087    -1.14520456
    6 H                    1.0000    -0.96701142    -0.67762480    -1.67406543
    7 O                    8.0000    -1.23886729    -0.92168547     1.54893599
    8 H                    1.0000    -0.79730565    -0.06066736     1.43645789
    9 H                    1.0000    -2.14248285    -0.75723258     1.20625009
   10 O                    8.0000     2.21344723    -0.53710487    -0.27900015
   11 H                    1.0000     2.86478866    -0.88487914     0.34271466
   12 H                    1.0000     1.56034347    -1.26230309    -0.39421704

      Atomic Mass 
      ----------- 

      O                 15.994910
      H                  1.007825


 Effective nuclear repulsion energy (a.u.)     135.0465145249

            Nuclear Dipole moment (a.u.) 
            ----------------------------
        X                 Y               Z
 ---------------- ---------------- ----------------
     0.0000000000    -0.0000000000    -0.0000000000


            XYZ format geometry
            -------------------
    12
 geometry
 O                     0.27900783     1.27094732     0.38648025
 H                     1.10384764     0.76408073     0.20009674
 H                     0.56366614     2.17577134     0.56336070
 O                    -1.41869618     0.18321477    -1.72334021
 H                    -0.86497886     0.73988087    -1.14520456
 H                    -0.96701142    -0.67762480    -1.67406543
 O                    -1.23886729    -0.92168547     1.54893599
 H                    -0.79730565    -0.06066736     1.43645789
 H                    -2.14248285    -0.75723258     1.20625009
 O                     2.21344723    -0.53710487    -0.27900015
 H                     2.86478866    -0.88487914     0.34271466
 H                     1.56034347    -1.26230309    -0.39421704

 ==============================================================================
                                internuclear distances
 ------------------------------------------------------------------------------
       center one      |      center two      | atomic units |  angstroms
 ------------------------------------------------------------------------------
    2 H                |   1 O                |     1.86309  |     0.98591
    3 H                |   1 O                |     1.82339  |     0.96490
    5 H                |   4 O                |     1.84258  |     0.97505
    6 H                |   4 O                |     1.83944  |     0.97339
    8 H                |   7 O                |     1.84089  |     0.97416
    9 H                |   7 O                |     1.85251  |     0.98031
   11 H                |  10 O                |     1.82407  |     0.96526
   12 H                |  10 O                |     1.85707  |     0.98272
 ------------------------------------------------------------------------------
                         number of included internuclear distances:          8
 ==============================================================================



 ==============================================================================
                                 internuclear angles
 ------------------------------------------------------------------------------
        center 1       |       center 2       |       center 3       |  degrees
 ------------------------------------------------------------------------------
    2 H                |   1 O                |   3 H                |   105.66
    5 H                |   4 O                |   6 H                |   102.20
    8 H                |   7 O                |   9 H                |   103.25
   11 H                |  10 O                |  12 H                |   104.96
 ------------------------------------------------------------------------------
                            number of included internuclear angles:          4
 ==============================================================================





 Summary of "ao basis" -> "" (spherical)
 ------------------------------------------------------------------------------
       Tag                 Description            Shells   Functions and Types
 ---------------- ------------------------------  ------  ---------------------
 *                          cc-pvdz                   on all atoms 


                      Basis "ao basis" -> "ao basis" (spherical)
                      -----
  O (Oxygen)
  ----------
            Exponent  Coefficients 
       -------------- ---------------------------------------------------------
  1 S  1.17200000E+04  0.000710
  1 S  1.75900000E+03  0.005470
  1 S  4.00800000E+02  0.027837
  1 S  1.13700000E+02  0.104800
  1 S  3.70300000E+01  0.283062
  1 S  1.32700000E+01  0.448719
  1 S  5.02500000E+00  0.270952
  1 S  1.01300000E+00  0.015458

  2 S  1.17200000E+04 -0.000160
  2 S  1.75900000E+03 -0.001263
  2 S  4.00800000E+02 -0.006267
  2 S  1.13700000E+02 -0.025716
  2 S  3.70300000E+01 -0.070924
  2 S  1.32700000E+01 -0.165411
  2 S  5.02500000E+00 -0.116955
  2 S  1.01300000E+00  0.557368

  3 S  3.02300000E-01  1.000000

  4 P  1.77000000E+01  0.043018
  4 P  3.85400000E+00  0.228913
  4 P  1.04600000E+00  0.508728

  5 P  2.75300000E-01  1.000000

  6 D  1.18500000E+00  1.000000

  H (Hydrogen)
  ------------
            Exponent  Coefficients 
       -------------- ---------------------------------------------------------
  1 S  1.30100000E+01  0.019685
  1 S  1.96200000E+00  0.137977
  1 S  4.44600000E-01  0.478148

  2 S  1.22000000E-01  1.000000

  3 P  7.27000000E-01  1.000000



 Summary of "ao basis" -> "ao basis" (spherical)
 ------------------------------------------------------------------------------
       Tag                 Description            Shells   Functions and Types
 ---------------- ------------------------------  ------  ---------------------
 O                          cc-pvdz                  6       14   3s2p1d
 H                          cc-pvdz                  3        5   2s1p


                                 NWChem SCF Module
                                 -----------------



  ao basis        = "ao basis"
  functions       =    96
  atoms           =    12
  closed shells   =    20
  open shells     =     0
  charge          =   0.00
  wavefunction    = RHF 
  input vectors   = atomic
  output vectors  = ./input_4_2_1.movecs
  use symmetry    = F
  symmetry adapt  = F


 Summary of "ao basis" -> "ao basis" (spherical)
 ------------------------------------------------------------------------------
       Tag                 Description            Shells   Functions and Types
 ---------------- ------------------------------  ------  ---------------------
 O                          cc-pvdz                  6       14   3s2p1d
 H                          cc-pvdz                  3        5   2s1p



 Forming initial guess at       0.1s


      Superposition of Atomic Density Guess
      -------------------------------------

 Sum of atomic energies:        -303.04891642

      Non-variational initial energy
      ------------------------------

 Total energy =    -303.714955
 1-e energy   =    -683.870751
 2-e energy   =     245.109281
 HOMO         =      -0.459350
 LUMO         =       0.036071


 Starting SCF solution at       0.7s



 ----------------------------------------------
         Quadratically convergent ROHF

 Convergence threshold     :          1.000E-04
 Maximum no. of iterations :           30
 Final Fock-matrix accuracy:          1.000E-07
 ----------------------------------------------


 Integral file          = ./input_4_2_1.aoints.0
 Record size in doubles =  65536        No. of integs per rec  =  43688
 Max. records in memory =    339        Max. records in file   = 400627
 No. of bits per label  =      8        No. of bits per value  =     64


 #quartets = 4.952D+05 #integrals = 5.682D+06 #direct =  0.0% #cached =100.0%


              iter       energy          gnorm     gmax       time
             ----- ------------------- --------- --------- --------
                 1     -304.0124158075  1.52D+00  2.45D-01      1.9
                 2     -304.1218682032  3.35D-01  7.28D-02      2.1
                 3     -304.1308694941  2.77D-02  4.09D-03      2.3
                 4     -304.1309369068  5.21D-04  9.50D-05      2.6
                 5     -304.1309369266  9.94D-06  2.28D-06      2.8


       Final RHF  results 
       ------------------ 

         Total SCF energy =   -304.130936926609
      One-electron energy =   -689.031312131877
      Two-electron energy =    249.853860680399
 Nuclear repulsion energy =    135.046514524869

        Time for solution =      2.2s


             Final eigenvalues
             -----------------

              1      
    1  -20.6061
    2  -20.5729
    3  -20.5279
    4  -20.5255
    5   -1.3842
    6   -1.3519
    7   -1.3039
    8   -1.3027
    9   -0.7476
   10   -0.7228
   11   -0.6719
   12   -0.6642
   13   -0.6218
   14   -0.5908
   15   -0.5506
   16   -0.5432
   17   -0.5321
   18   -0.5070
   19   -0.4718
   20   -0.4630
   21    0.1354
   22    0.1943
   23    0.1993
   24    0.2383
   25    0.2830
   26    0.3392
   27    0.3585
   28    0.3870
   29    0.7230
   30    0.7357

                       ROHF Final Molecular Orbital Analysis
                       -------------------------------------

 Vector    5  Occ=2.000000D+00  E=-1.384165D+00
              MO Center=  2.1D+00, -5.5D-01, -1.7D-01, r^2= 9.3D-01
   Bfn.  Coefficient  Atom+Function         Bfn.  Coefficient  Atom+Function  
  ----- ------------  ---------------      ----- ------------  ---------------
    74      0.431340  10 O  s                75      0.380997  10 O  s         
    87      0.180171  11 H  s                92      0.172495  12 H  s         

 Vector    6  Occ=2.000000D+00  E=-1.351916D+00
              MO Center=  5.0D-01,  1.2D+00,  3.4D-01, r^2= 1.1D+00
   Bfn.  Coefficient  Atom+Function         Bfn.  Coefficient  Atom+Function  
  ----- ------------  ---------------      ----- ------------  ---------------
     2      0.426881   1 O  s                 3      0.384366   1 O  s         
    20      0.180656   3 H  s                15      0.161977   2 H  s         

 Vector    7  Occ=2.000000D+00  E=-1.303895D+00
              MO Center= -1.3D+00, -3.1D-01, -4.7D-03, r^2= 3.2D+00
   Bfn.  Coefficient  Atom+Function         Bfn.  Coefficient  Atom+Function  
  ----- ------------  ---------------      ----- ------------  ---------------
    50      0.317154   7 O  s                26      0.304108   4 O  s         
    51      0.279382   7 O  s                27      0.265850   4 O  s         

 Vector    8  Occ=2.000000D+00  E=-1.302730D+00
              MO Center= -1.3D+00, -3.0D-01, -1.4D-01, r^2= 3.2D+00
   Bfn.  Coefficient  Atom+Function         Bfn.  Coefficient  Atom+Function  
  ----- ------------  ---------------      ----- ------------  ---------------
    26      0.319719   4 O  s                50     -0.307915   7 O  s         
    27      0.282753   4 O  s                51     -0.275106   7 O  s         

 Vector    9  Occ=2.000000D+00  E=-7.475859D-01
              MO Center=  1.9D+00, -3.6D-01, -7.6D-02, r^2= 1.9D+00
   Bfn.  Coefficient  Atom+Function         Bfn.  Coefficient  Atom+Function  
  ----- ------------  ---------------      ----- ------------  ---------------
    76      0.396329  10 O  px               87      0.310633  11 H  s         
    92     -0.258165  12 H  s                78      0.205385  10 O  pz        
    79      0.193533  10 O  px                5      0.179992   1 O  py        

 Vector   10  Occ=2.000000D+00  E=-7.227661D-01
              MO Center=  8.9D-01,  8.0D-01,  2.3D-01, r^2= 2.3D+00
   Bfn.  Coefficient  Atom+Function         Bfn.  Coefficient  Atom+Function  
  ----- ------------  ---------------      ----- ------------  ---------------
     5      0.385381   1 O  py               20      0.277428   3 H  s         
    15     -0.260242   2 H  s                92      0.188836  12 H  s         
     8      0.184303   1 O  py               77     -0.178017  10 O  py        

 Vector   11  Occ=2.000000D+00  E=-6.718514D-01
              MO Center= -9.8D-01, -2.3D-01,  4.7D-01, r^2= 3.5D+00
   Bfn.  Coefficient  Atom+Function         Bfn.  Coefficient  Atom+Function  
  ----- ------------  ---------------      ----- ------------  ---------------
    52      0.313225   7 O  px               63      0.248286   8 H  s         
    68     -0.232538   9 H  s                29      0.224316   4 O  py        
     4     -0.186505   1 O  px               53      0.186612   7 O  py        
    39      0.169279   5 H  s                44     -0.156941   6 H  s         

 Vector   12  Occ=2.000000D+00  E=-6.641580D-01
              MO Center= -1.2D+00, -1.1D-01, -5.7D-01, r^2= 3.1D+00
   Bfn.  Coefficient  Atom+Function         Bfn.  Coefficient  Atom+Function  
  ----- ------------  ---------------      ----- ------------  ---------------
    29      0.363761   4 O  py               39      0.258869   5 H  s         
    44     -0.256842   6 H  s                52     -0.241947   7 O  px        
    68      0.179842   9 H  s                63     -0.177994   8 H  s         
    32      0.171788   4 O  py        

 Vector   13  Occ=2.000000D+00  E=-6.217816D-01
              MO Center=  1.5D+00, -1.3D-01, -9.8D-02, r^2= 3.0D+00
   Bfn.  Coefficient  Atom+Function         Bfn.  Coefficient  Atom+Function  
  ----- ------------  ---------------      ----- ------------  ---------------
    77      0.422569  10 O  py               75      0.277445  10 O  s         
    80      0.274944  10 O  py                5      0.188875   1 O  py        
     3     -0.177846   1 O  s                78     -0.177774  10 O  pz        
    87     -0.172202  11 H  s                92     -0.170997  12 H  s         
    20      0.153590   3 H  s         

 Vector   14  Occ=2.000000D+00  E=-5.908158D-01
              MO Center=  5.1D-01,  4.3D-01,  6.4D-02, r^2= 3.6D+00
   Bfn.  Coefficient  Atom+Function         Bfn.  Coefficient  Atom+Function  
  ----- ------------  ---------------      ----- ------------  ---------------
     4      0.386035   1 O  px                7      0.263832   1 O  px        
    78      0.236008  10 O  pz                3     -0.221992   1 O  s         
    77     -0.174283  10 O  py               81      0.172709  10 O  pz        
    75     -0.165459  10 O  s                15      0.152500   2 H  s         

 Vector   15  Occ=2.000000D+00  E=-5.506094D-01
              MO Center= -1.0D+00, -3.5D-02, -1.5D-01, r^2= 4.0D+00
   Bfn.  Coefficient  Atom+Function         Bfn.  Coefficient  Atom+Function  
  ----- ------------  ---------------      ----- ------------  ---------------
    28      0.301502   4 O  px               53     -0.257497   7 O  py        
     6     -0.251001   1 O  pz               27     -0.230536   4 O  s         
    51      0.214871   7 O  s                31      0.206999   4 O  px        
     9     -0.205947   1 O  pz               56     -0.176366   7 O  py        
    44      0.160302   6 H  s                30      0.157453   4 O  pz        

 Vector   16  Occ=2.000000D+00  E=-5.432309D-01
              MO Center=  6.3D-01, -4.2D-01, -1.6D-01, r^2= 5.1D+00
   Bfn.  Coefficient  Atom+Function         Bfn.  Coefficient  Atom+Function  
  ----- ------------  ---------------      ----- ------------  ---------------
    78      0.359293  10 O  pz               81      0.280328  10 O  pz        
    76     -0.248366  10 O  px               53      0.215697   7 O  py        
    28      0.197703   4 O  px               79     -0.193767  10 O  px        
    77      0.158934  10 O  py               51     -0.156069   7 O  s         

 Vector   17  Occ=2.000000D+00  E=-5.320896D-01
              MO Center=  2.2D-01, -2.1D-01,  2.7D-01, r^2= 4.9D+00
   Bfn.  Coefficient  Atom+Function         Bfn.  Coefficient  Atom+Function  
  ----- ------------  ---------------      ----- ------------  ---------------
    53      0.291329   7 O  py                4      0.263351   1 O  px        
    78     -0.261449  10 O  pz               81     -0.209924  10 O  pz        
    56      0.205427   7 O  py               76      0.201925  10 O  px        
     7      0.176638   1 O  px               77     -0.171918  10 O  py        
    28      0.165788   4 O  px               79      0.159479  10 O  px        

 Vector   18  Occ=2.000000D+00  E=-5.069712D-01
              MO Center= -6.4D-02,  9.6D-01,  9.2D-02, r^2= 2.3D+00
   Bfn.  Coefficient  Atom+Function         Bfn.  Coefficient  Atom+Function  
  ----- ------------  ---------------      ----- ------------  ---------------
     6      0.539429   1 O  pz                9      0.422602   1 O  pz        
    28      0.192485   4 O  px        

 Vector   19  Occ=2.000000D+00  E=-4.717760D-01
              MO Center= -1.3D+00, -5.0D-01,  3.4D-01, r^2= 3.3D+00
   Bfn.  Coefficient  Atom+Function         Bfn.  Coefficient  Atom+Function  
  ----- ------------  ---------------      ----- ------------  ---------------
    54      0.448302   7 O  pz               57      0.361448   7 O  pz        
    30     -0.285964   4 O  pz               33     -0.234547   4 O  pz        
    28      0.230671   4 O  px               31      0.182557   4 O  px        
    52     -0.156850   7 O  px        

 Vector   20  Occ=2.000000D+00  E=-4.629692D-01
              MO Center= -1.3D+00, -2.2D-01, -5.1D-01, r^2= 3.4D+00
   Bfn.  Coefficient  Atom+Function         Bfn.  Coefficient  Atom+Function  
  ----- ------------  ---------------      ----- ------------  ---------------
    30      0.405214   4 O  pz               54      0.363355   7 O  pz        
    33      0.317578   4 O  pz               57      0.284175   7 O  pz        
    28     -0.264699   4 O  px               31     -0.209663   4 O  px        

 Vector   21  Occ=0.000000D+00  E= 1.354496D-01
              MO Center=  1.2D+00, -6.3D-01, -1.3D-01, r^2= 5.9D+00
   Bfn.  Coefficient  Atom+Function         Bfn.  Coefficient  Atom+Function  
  ----- ------------  ---------------      ----- ------------  ---------------
    75      0.760838  10 O  s                93     -0.676200  12 H  s         
    88     -0.573150  11 H  s                21     -0.442512   3 H  s         
    45     -0.425474   6 H  s                 3      0.332644   1 O  s         
    27      0.279415   4 O  s                80     -0.240354  10 O  py        
    51      0.186449   7 O  s                69     -0.167998   9 H  s         

 Vector   22  Occ=0.000000D+00  E= 1.942555D-01
              MO Center=  1.1D+00,  8.1D-01,  5.2D-01, r^2= 7.7D+00
   Bfn.  Coefficient  Atom+Function         Bfn.  Coefficient  Atom+Function  
  ----- ------------  ---------------      ----- ------------  ---------------
    21      1.006187   3 H  s                88     -0.809863  11 H  s         
     3     -0.628844   1 O  s                75      0.527950  10 O  s         
    69      0.344664   9 H  s                 8     -0.289331   1 O  py        
    51     -0.261935   7 O  s                27     -0.168307   4 O  s         

 Vector   23  Occ=0.000000D+00  E= 1.992528D-01
              MO Center=  9.2D-01, -1.8D-01, -1.8D-01, r^2= 8.0D+00
   Bfn.  Coefficient  Atom+Function         Bfn.  Coefficient  Atom+Function  
  ----- ------------  ---------------      ----- ------------  ---------------
    88      0.958008  11 H  s                93     -0.749048  12 H  s         
    45     -0.699915   6 H  s                21      0.685719   3 H  s         
     3     -0.450320   1 O  s                27      0.353965   4 O  s         
    79     -0.324623  10 O  px               69     -0.276233   9 H  s         
    32     -0.231009   4 O  py               81     -0.215203  10 O  pz        

 Vector   24  Occ=0.000000D+00  E= 2.382675D-01
              MO Center= -1.5D+00, -5.4D-01,  9.0D-01, r^2= 6.1D+00
   Bfn.  Coefficient  Atom+Function         Bfn.  Coefficient  Atom+Function  
  ----- ------------  ---------------      ----- ------------  ---------------
    69      1.231154   9 H  s                51     -0.786630   7 O  s         
    93     -0.552598  12 H  s                88      0.473510  11 H  s         
    21     -0.450835   3 H  s                55      0.354243   7 O  px        
    45     -0.205150   6 H  s                79     -0.189834  10 O  px        
    52      0.177639   7 O  px                8      0.161332   1 O  py        

 Vector   25  Occ=0.000000D+00  E= 2.830070D-01
              MO Center=  1.1D-01, -9.1D-01, -9.0D-01, r^2= 5.9D+00
   Bfn.  Coefficient  Atom+Function         Bfn.  Coefficient  Atom+Function  
  ----- ------------  ---------------      ----- ------------  ---------------
    93     -1.146706  12 H  s                45      1.060851   6 H  s         
    27     -0.790079   4 O  s                88      0.643322  11 H  s         
    79     -0.353430  10 O  px               64     -0.300839   8 H  s         
    51      0.296431   7 O  s                40      0.272787   5 H  s         
    32      0.236104   4 O  py               75      0.217306  10 O  s         

 Vector   26  Occ=0.000000D+00  E= 3.391586D-01
              MO Center= -1.7D-01,  5.6D-01,  5.2D-01, r^2= 5.7D+00
   Bfn.  Coefficient  Atom+Function         Bfn.  Coefficient  Atom+Function  
  ----- ------------  ---------------      ----- ------------  ---------------
    64      1.102404   8 H  s                16      1.026670   2 H  s         
    21     -0.930578   3 H  s                40      0.740605   5 H  s         
    69     -0.730094   9 H  s                 8      0.533789   1 O  py        
    45     -0.425584   6 H  s                55     -0.338810   7 O  px        
     3     -0.280467   1 O  s                56     -0.257050   7 O  py        

 Vector   27  Occ=0.000000D+00  E= 3.585297D-01
              MO Center= -6.9D-01,  4.0D-01, -1.2D-01, r^2= 5.5D+00
   Bfn.  Coefficient  Atom+Function         Bfn.  Coefficient  Atom+Function  
  ----- ------------  ---------------      ----- ------------  ---------------
    40      1.504241   5 H  s                64     -1.293488   8 H  s         
    45     -0.899517   6 H  s                69      0.563115   9 H  s         
    32     -0.454121   4 O  py               51      0.412555   7 O  s         
    93      0.359106  12 H  s                27     -0.342357   4 O  s         
    55      0.304016   7 O  px               56      0.294294   7 O  py        

 Vector   28  Occ=0.000000D+00  E= 3.870375D-01
              MO Center=  6.4D-01,  7.3D-01,  1.8D-01, r^2= 4.9D+00
   Bfn.  Coefficient  Atom+Function         Bfn.  Coefficient  Atom+Function  
  ----- ------------  ---------------      ----- ------------  ---------------
    16      1.941523   2 H  s                40     -0.987011   5 H  s         
    64     -0.902701   8 H  s                 7     -0.533932   1 O  px        
     3     -0.517992   1 O  s                69      0.449998   9 H  s         
    21     -0.429317   3 H  s                27      0.359482   4 O  s         
    45      0.343676   6 H  s                88     -0.330679  11 H  s         

 Vector   29  Occ=0.000000D+00  E= 7.229733D-01
              MO Center=  1.9D+00, -4.5D-01, -7.9D-02, r^2= 2.9D+00
   Bfn.  Coefficient  Atom+Function         Bfn.  Coefficient  Atom+Function  
  ----- ------------  ---------------      ----- ------------  ---------------
    92      0.907914  12 H  s                87     -0.793510  11 H  s         
    93     -0.706344  12 H  s                88      0.556305  11 H  s         
    16      0.507404   2 H  s                79      0.425874  10 O  px        
    15     -0.366111   2 H  s                20     -0.246708   3 H  s         
    40     -0.206650   5 H  s                39      0.187381   5 H  s         

 Vector   30  Occ=0.000000D+00  E= 7.356930D-01
              MO Center= -5.3D-02,  8.8D-01, -2.5D-01, r^2= 3.7D+00
   Bfn.  Coefficient  Atom+Function         Bfn.  Coefficient  Atom+Function  
  ----- ------------  ---------------      ----- ------------  ---------------
    16     -0.834433   2 H  s                15      0.799583   2 H  s         
    20     -0.715083   3 H  s                40      0.561146   5 H  s         
    44      0.562509   6 H  s                21      0.500766   3 H  s         
    39     -0.470752   5 H  s                 8      0.401478   1 O  py        
    45     -0.356595   6 H  s                64      0.267677   8 H  s         


 center of mass
 --------------
 x =  -0.03435425 y =  -0.00096300 z =  -0.01392496

 moments of inertia (a.u.)
 ------------------
         541.951979884484          -0.025717396294          -0.119391281361
          -0.025717396294         904.908405610603          59.871110891137
          -0.119391281361          59.871110891137         748.103316879212

  Mulliken analysis of the total density
  --------------------------------------

    Atom       Charge   Shell Charges
 -----------   ------   -------------------------------------------------------
    1 O    8     8.37   2.00  0.82  0.85  2.83  1.85  0.01
    2 H    1     0.79   0.62  0.09  0.09
    3 H    1     0.83   0.68  0.07  0.08
    4 O    8     8.36   2.00  0.83  0.84  2.81  1.86  0.01
    5 H    1     0.82   0.65  0.09  0.09
    6 H    1     0.85   0.69  0.08  0.08
    7 O    8     8.38   2.00  0.83  0.84  2.81  1.88  0.01
    8 H    1     0.83   0.65  0.09  0.09
    9 H    1     0.83   0.67  0.08  0.08
   10 O    8     8.32   2.00  0.83  0.84  2.82  1.82  0.01
   11 H    1     0.82   0.67  0.06  0.08
   12 H    1     0.81   0.66  0.07  0.08

       Multipole analysis of the density wrt the origin
       ------------------------------------------------

     L   x y z        total         open         nuclear
     -   - - -        -----         ----         -------
     0   0 0 0     -0.000000      0.000000     40.000000

     1   1 0 0      1.547481      0.000000      0.000000
     1   0 1 0      0.064258      0.000000     -0.000000
     1   0 0 1      0.480904      0.000000     -0.000000

     2   2 0 0    -16.153883      0.000000    311.698898
     2   1 1 0     -1.422206      0.000000     -1.311995
     2   1 0 1      0.162780      0.000000     -0.304046
     2   0 2 0    -14.338310      0.000000    112.748446
     2   0 1 1      4.335632      0.000000    -28.422417
     2   0 0 2    -25.088201      0.000000    189.385009


 Parallel integral file used     131 records with       0 large values

                              NWChem Gradients Module
                              -----------------------



  wavefunction    =   RHF     



                         RHF ENERGY GRADIENTS

    atom               coordinates                        gradient
                 x          y          z           x          y          z
   1 O       0.527248   2.401742   0.730342   -0.029224  -0.008507  -0.000164
   2 H       2.085970   1.443903   0.378128    0.023757  -0.016252  -0.005479
   3 H       1.065175   4.111612   1.064597    0.006228   0.018627   0.003910
   4 O      -2.680947   0.346226  -3.256641   -0.029639   0.011716  -0.016292
   5 H      -1.634573   1.398172  -2.164123    0.016616   0.013316   0.013798
   6 H      -1.827387  -1.280525  -3.163525    0.015954  -0.024515   0.002036
   7 O      -2.341120  -1.741733   2.927065    0.019571  -0.026447   0.014226
   8 H      -1.506689  -0.114645   2.714512    0.011982   0.021920  -0.001249
   9 H      -4.048706  -1.430962   2.279482   -0.032690   0.005568  -0.010530
  10 O       4.182809  -1.014981  -0.527234    0.008577   0.033757  -0.006891
  11 H       5.413666  -1.672179   0.647637    0.013378  -0.005514   0.012190
  12 H       2.948622  -2.385407  -0.744962   -0.024510  -0.023670  -0.005555

                 ----------------------------------------
                 |  Time  |  1-e(secs)   |  2-e(secs)   |
                 ----------------------------------------
                 |  CPU   |       0.01   |       1.17   |
                 ----------------------------------------
                 |  WALL  |       0.01   |       1.17   |
                 ----------------------------------------

 Task  times  cpu:        4.0s     wall:        4.1s


                                NWChem Input Module
                                -------------------


 Summary of allocated global arrays
-----------------------------------
  No active global arrays



                         GA Statistics for process    0
                         ------------------------------

       create   destroy   get      put      acc     scatter   gather  read&inc
calls:  249      249     1.09e+04 5649     4638        0        0      166     
number of processes/call 0.00e+00 0.00e+00 0.00e+00 0.00e+00 0.00e+00
bytes total:             2.51e+07 1.50e+07 3.59e+06 0.00e+00 0.00e+00 1.33e+03
bytes remote:            0.00e+00 0.00e+00 0.00e+00 0.00e+00 0.00e+00 0.00e+00
Max memory consumed for GA by this process: 958464 bytes

MA_summarize_allocated_blocks: starting scan ...
MA_summarize_allocated_blocks: scan completed: 0 heap blocks, 0 stack blocks
MA usage statistics:

	allocation statistics:
					      heap	     stack
					      ----	     -----
	current number of blocks	         0	         0
	maximum number of blocks	        18	        28
	current total bytes		         0	         0
	maximum total bytes		 177770848	  26178728
	maximum total K-bytes		    177771	     26179
	maximum total M-bytes		       178	        27


                                     CITATION
                                     --------
                Please cite the following reference when publishing
                           results obtained with NWChem:

          E. Aprà, E. J. Bylaska, W. A. de Jong, N. Govind, K. Kowalski,
       T. P. Straatsma, M. Valiev, H. J. J. van Dam, Y. Alexeev, J. Anchell,
       V. Anisimov, F. W. Aquino, R. Atta-Fynn, J. Autschbach, N. P. Bauman,
     J. C. Becca, D. E. Bernholdt, K. Bhaskaran-Nair, S. Bogatko, P. Borowski,
        J. Boschen, J. Brabec, A. Bruner, E. Cauët, Y. Chen, G. N. Chuev,
      C. J. Cramer, J. Daily, M. J. O. Deegan, T. H. Dunning Jr., M. Dupuis,
   K. G. Dyall, G. I. Fann, S. A. Fischer, A. Fonari, H. Früchtl, L. Gagliardi,
      J. Garza, N. Gawande, S. Ghosh, K. Glaesemann, A. W. Götz, J. Hammond,
       V. Helms, E. D. Hermes, K. Hirao, S. Hirata, M. Jacquelin, L. Jensen,
   B. G. Johnson, H. Jónsson, R. A. Kendall, M. Klemm, R. Kobayashi, V. Konkov,
      S. Krishnamoorthy, M. Krishnan, Z. Lin, R. D. Lins, R. J. Littlefield,
      A. J. Logsdail, K. Lopata, W. Ma, A. V. Marenich, J. Martin del Campo,
   D. Mejia-Rodriguez, J. E. Moore, J. M. Mullin, T. Nakajima, D. R. Nascimento,
    J. A. Nichols, P. J. Nichols, J. Nieplocha, A. Otero-de-la-Roza, B. Palmer,
    A. Panyala, T. Pirojsirikul, B. Peng, R. Peverati, J. Pittner, L. Pollack,
   R. M. Richard, P. Sadayappan, G. C. Schatz, W. A. Shelton, D. W. Silverstein,
   D. M. A. Smith, T. A. Soares, D. Song, M. Swart, H. L. Taylor, G. S. Thomas,
            V. Tipparaju, D. G. Truhlar, K. Tsemekhman, T. Van Voorhis,
     Á. Vázquez-Mayagoitia, P. Verma, O. Villa, A. Vishnu, K. D. Vogiatzis,
        D. Wang, J. H. Weare, M. J. Williamson, T. L. Windus, K. Woliński,
        A. T. Wong, Q. Wu, C. Yang, Q. Yu, M. Zacharias, Z. Zhang, Y. Zhao,
                                and R. J. Harrison
                        "NWChem: Past, present, and future
                         J. Chem. Phys. 152, 184102 (2020)
                               doi:10.1063/5.0004997

                                      AUTHORS
                                      -------
     E. Apra, E. J. Bylaska, N. Govind, K. Kowalski, M. Valiev, W. A. de Jong,
      T. P. Straatsma, H. J. J. van Dam, D. Wang, T. L. Windus, N. P. Bauman,
       A. Panyala, J. Hammond, J. Autschbach, K. Bhaskaran-Nair, J. Brabec,
    K. Lopata, S. A. Fischer, S. Krishnamoorthy, M. Jacquelin, W. Ma, M. Klemm,
       O. Villa, Y. Chen, V. Anisimov, F. Aquino, S. Hirata, M. T. Hackler,
           Eric Hermes, L. Jensen, J. E. Moore, J. C. Becca, V. Konjkov,
            D. Mejia-Rodriguez, T. Risthaus, M. Malagoli, A. Marenich,
   A. Otero-de-la-Roza, J. Mullin, P. Nichols, R. Peverati, J. Pittner, Y. Zhao,
        P.-D. Fan, A. Fonari, M. J. Williamson, R. J. Harrison, J. R. Rehr,
      M. Dupuis, D. Silverstein, D. M. A. Smith, J. Nieplocha, V. Tipparaju,
      M. Krishnan, B. E. Van Kuiken, A. Vazquez-Mayagoitia, M. Swart, Q. Wu,
   T. Van Voorhis, A. A. Auer, M. Nooijen, L. D. Crosby, E. Brown, G. Cisneros,
     G. I. Fann, H. Fruchtl, J. Garza, K. Hirao, R. A. Kendall, J. A. Nichols,
       K. Tsemekhman, K. Wolinski, J. Anchell, D. E. Bernholdt, P. Borowski,
       T. Clark, D. Clerc, H. Dachsel, M. J. O. Deegan, K. Dyall, D. Elwood,
      E. Glendening, M. Gutowski, A. C. Hess, J. Jaffe, B. G. Johnson, J. Ju,
        R. Kobayashi, R. Kutteh, Z. Lin, R. Littlefield, X. Long, B. Meng,
      T. Nakajima, S. Niu, L. Pollack, M. Rosing, K. Glaesemann, G. Sandrone,
      M. Stave, H. Taylor, G. Thomas, J. H. van Lenthe, A. T. Wong, Z. Zhang.

 Total times  cpu:        4.0s     wall:        4.1s
