 argument  1 = nwchem/input_3_8_at_worker_3.nw



============================== echo of input deck ==============================
echo
memory 1000 mb
geometry noautosym noautoz
O 0.87715956 1.70409266 0.47858616
H 1.70199937 1.19722607 0.29220265
H 1.16181787 2.60891668 0.65546661
O 0.57630762 -1.69154092 -0.42866929
H 0.43417462 -2.64420081 -0.48595869
H 0.08911917 -1.3894609 0.38589939
O 2.81159896 -0.10395953 -0.18689424
H 3.46294039 -0.4517338 0.43482057
H 2.1584952 -0.82915775 -0.30211113
end
basis spherical
 * library cc-pvdz
end
task scf gradient
================================================================================


                                         
                                         


             Northwest Computational Chemistry Package (NWChem) 7.0.2
             --------------------------------------------------------


                    Environmental Molecular Sciences Laboratory
                       Pacific Northwest National Laboratory
                                Richland, WA 99352

                              Copyright (c) 1994-2020
                       Pacific Northwest National Laboratory
                            Battelle Memorial Institute

             NWChem is an open-source computational chemistry package
                        distributed under the terms of the
                      Educational Community License (ECL) 2.0
             A copy of the license is included with this distribution
                              in the LICENSE.TXT file

                                  ACKNOWLEDGMENT
                                  --------------

            This software and its documentation were developed at the
            EMSL at Pacific Northwest National Laboratory, a multiprogram
            national laboratory, operated for the U.S. Department of Energy
            by Battelle under Contract Number DE-AC05-76RL01830. Support
            for this work was provided by the Department of Energy Office
            of Biological and Environmental Research, Office of Basic
            Energy Sciences, and the Office of Advanced Scientific Computing.


           Job information
           ---------------

    hostname        = pop-os
    program         = nwchem
    date            = Thu Jul  8 18:19:45 2021

    compiled        = Wed_Jan_06_19:48:08_2021
    source          = /build/nwchem-ksKH2r/nwchem-7.0.2
    nwchem branch   = 7.0.2
    nwchem revision = N/A
    ga revision     = 5.7.1
    use scalapack   = T
    input           = nwchem/input_3_8_at_worker_3.nw
    prefix          = input_3_8_at_worker_3.
    data base       = ./input_3_8_at_worker_3.db
    status          = startup
    nproc           =        1
    time left       =     -1s



           Memory information
           ------------------

    heap     =   32767994 doubles =    250.0 Mbytes
    stack    =   32767999 doubles =    250.0 Mbytes
    global   =   65536000 doubles =    500.0 Mbytes (distinct from heap & stack)
    total    =  131071993 doubles =   1000.0 Mbytes
    verify   = yes
    hardfail = no 


           Directory information
           ---------------------

  0 permanent = .
  0 scratch   = .




                                NWChem Input Module
                                -------------------



 Scaling coordinates for geometry "geometry" by  1.889725989
 (inverse scale =  0.529177249)



                             Geometry "geometry" -> ""
                             -------------------------

 Output coordinates in angstroms (scale by  1.889725989 to convert to a.u.)

  No.       Tag          Charge          X              Y              Z
 ---- ---------------- ---------- -------------- -------------- --------------
    1 O                    8.0000    -0.56047630     1.77874842     0.48243615
    2 H                    1.0000     0.26436351     1.27188183     0.29605264
    3 H                    1.0000    -0.27581799     2.68357244     0.65931660
    4 O                    8.0000    -0.86132824    -1.61688516    -0.42481930
    5 H                    1.0000    -1.00346124    -2.56954505    -0.48210870
    6 H                    1.0000    -1.34851669    -1.31480514     0.38974938
    7 O                    8.0000     1.37396310    -0.02930377    -0.18304425
    8 H                    1.0000     2.02530453    -0.37707804     0.43867056
    9 H                    1.0000     0.72085934    -0.75450199    -0.29826114

      Atomic Mass 
      ----------- 

      O                 15.994910
      H                  1.007825


 Effective nuclear repulsion energy (a.u.)      80.5017927212

            Nuclear Dipole moment (a.u.) 
            ----------------------------
        X                 Y               Z
 ---------------- ---------------- ----------------
    -0.0000000000     0.0000000000     0.0000000000


            XYZ format geometry
            -------------------
     9
 geometry
 O                    -0.56047630     1.77874842     0.48243615
 H                     0.26436351     1.27188183     0.29605264
 H                    -0.27581799     2.68357244     0.65931660
 O                    -0.86132824    -1.61688516    -0.42481930
 H                    -1.00346124    -2.56954505    -0.48210870
 H                    -1.34851669    -1.31480514     0.38974938
 O                     1.37396310    -0.02930377    -0.18304425
 H                     2.02530453    -0.37707804     0.43867056
 H                     0.72085934    -0.75450199    -0.29826114

 ==============================================================================
                                internuclear distances
 ------------------------------------------------------------------------------
       center one      |      center two      | atomic units |  angstroms
 ------------------------------------------------------------------------------
    2 H                |   1 O                |     1.86309  |     0.98591
    3 H                |   1 O                |     1.82339  |     0.96490
    5 H                |   4 O                |     1.82341  |     0.96491
    6 H                |   4 O                |     1.88227  |     0.99606
    8 H                |   7 O                |     1.82407  |     0.96526
    9 H                |   7 O                |     1.85707  |     0.98272
 ------------------------------------------------------------------------------
                         number of included internuclear distances:          6
 ==============================================================================



 ==============================================================================
                                 internuclear angles
 ------------------------------------------------------------------------------
        center 1       |       center 2       |       center 3       |  degrees
 ------------------------------------------------------------------------------
    2 H                |   1 O                |   3 H                |   105.66
    5 H                |   4 O                |   6 H                |   106.02
    8 H                |   7 O                |   9 H                |   104.96
 ------------------------------------------------------------------------------
                            number of included internuclear angles:          3
 ==============================================================================





 Summary of "ao basis" -> "" (spherical)
 ------------------------------------------------------------------------------
       Tag                 Description            Shells   Functions and Types
 ---------------- ------------------------------  ------  ---------------------
 *                          cc-pvdz                   on all atoms 


                      Basis "ao basis" -> "ao basis" (spherical)
                      -----
  O (Oxygen)
  ----------
            Exponent  Coefficients 
       -------------- ---------------------------------------------------------
  1 S  1.17200000E+04  0.000710
  1 S  1.75900000E+03  0.005470
  1 S  4.00800000E+02  0.027837
  1 S  1.13700000E+02  0.104800
  1 S  3.70300000E+01  0.283062
  1 S  1.32700000E+01  0.448719
  1 S  5.02500000E+00  0.270952
  1 S  1.01300000E+00  0.015458

  2 S  1.17200000E+04 -0.000160
  2 S  1.75900000E+03 -0.001263
  2 S  4.00800000E+02 -0.006267
  2 S  1.13700000E+02 -0.025716
  2 S  3.70300000E+01 -0.070924
  2 S  1.32700000E+01 -0.165411
  2 S  5.02500000E+00 -0.116955
  2 S  1.01300000E+00  0.557368

  3 S  3.02300000E-01  1.000000

  4 P  1.77000000E+01  0.043018
  4 P  3.85400000E+00  0.228913
  4 P  1.04600000E+00  0.508728

  5 P  2.75300000E-01  1.000000

  6 D  1.18500000E+00  1.000000

  H (Hydrogen)
  ------------
            Exponent  Coefficients 
       -------------- ---------------------------------------------------------
  1 S  1.30100000E+01  0.019685
  1 S  1.96200000E+00  0.137977
  1 S  4.44600000E-01  0.478148

  2 S  1.22000000E-01  1.000000

  3 P  7.27000000E-01  1.000000



 Summary of "ao basis" -> "ao basis" (spherical)
 ------------------------------------------------------------------------------
       Tag                 Description            Shells   Functions and Types
 ---------------- ------------------------------  ------  ---------------------
 O                          cc-pvdz                  6       14   3s2p1d
 H                          cc-pvdz                  3        5   2s1p


                                 NWChem SCF Module
                                 -----------------



  ao basis        = "ao basis"
  functions       =    72
  atoms           =     9
  closed shells   =    15
  open shells     =     0
  charge          =   0.00
  wavefunction    = RHF 
  input vectors   = atomic
  output vectors  = ./input_3_8_at_worker_3.movecs
  use symmetry    = F
  symmetry adapt  = F


 Summary of "ao basis" -> "ao basis" (spherical)
 ------------------------------------------------------------------------------
       Tag                 Description            Shells   Functions and Types
 ---------------- ------------------------------  ------  ---------------------
 O                          cc-pvdz                  6       14   3s2p1d
 H                          cc-pvdz                  3        5   2s1p



 Forming initial guess at       0.1s


      Superposition of Atomic Density Guess
      -------------------------------------

 Sum of atomic energies:        -227.28668731

      Non-variational initial energy
      ------------------------------

 Total energy =    -227.796936
 1-e energy   =    -471.343759
 2-e energy   =     163.045030
 HOMO         =      -0.461012
 LUMO         =       0.056271


 Starting SCF solution at       0.3s



 ----------------------------------------------
         Quadratically convergent ROHF

 Convergence threshold     :          1.000E-04
 Maximum no. of iterations :           30
 Final Fock-matrix accuracy:          1.000E-07
 ----------------------------------------------


 Integral file          = ./input_3_8_at_worker_3.aoints.0
 Record size in doubles =  65536        No. of integs per rec  =  43688
 Max. records in memory =    110        Max. records in file   = 400287
 No. of bits per label  =      8        No. of bits per value  =     64


 #quartets = 1.754D+05 #integrals = 2.254D+06 #direct =  0.0% #cached =100.0%


              iter       energy          gnorm     gmax       time
             ----- ------------------- --------- --------- --------
                 1     -228.0017583285  1.34D+00  2.76D-01      1.0
                 2     -228.0862963643  2.90D-01  7.32D-02      1.1
                 3     -228.0930831826  2.41D-02  4.68D-03      1.3
                 4     -228.0931341355  4.71D-04  1.03D-04      1.4
                 5     -228.0931341515  9.66D-06  1.69D-06      1.5


       Final RHF  results 
       ------------------ 

         Total SCF energy =   -228.093134151498
      One-electron energy =   -475.514511459367
      Two-electron energy =    166.919584586701
 Nuclear repulsion energy =     80.501792721168

        Time for solution =      1.2s


             Final eigenvalues
             -----------------

              1      
    1  -20.5888
    2  -20.5488
    3  -20.5024
    4   -1.3620
    5   -1.3303
    6   -1.2818
    7   -0.7266
    8   -0.6999
    9   -0.6604
   10   -0.5968
   11   -0.5668
   12   -0.5283
   13   -0.5151
   14   -0.4820
   15   -0.4476
   16    0.1575
   17    0.2080
   18    0.2336
   19    0.2506
   20    0.3746
   21    0.4102
   22    0.7269
   23    0.7654
   24    0.8079
   25    0.8342

                       ROHF Final Molecular Orbital Analysis
                       -------------------------------------

 Vector    4  Occ=2.000000D+00  E=-1.362022D+00
              MO Center= -8.2D-01, -1.6D+00, -3.2D-01, r^2= 8.7D-01
   Bfn.  Coefficient  Atom+Function         Bfn.  Coefficient  Atom+Function  
  ----- ------------  ---------------      ----- ------------  ---------------
    26      0.434297  4 O  s                 27      0.386975  4 O  s          
    39      0.182713  5 H  s                 44      0.166604  6 H  s          

 Vector    5  Occ=2.000000D+00  E=-1.330324D+00
              MO Center=  1.2D+00, -2.0D-01, -1.0D-01, r^2= 1.1D+00
   Bfn.  Coefficient  Atom+Function         Bfn.  Coefficient  Atom+Function  
  ----- ------------  ---------------      ----- ------------  ---------------
    50      0.426883  7 O  s                 51      0.381680  7 O  s          
    63      0.181456  8 H  s                 68      0.165066  9 H  s          

 Vector    6  Occ=2.000000D+00  E=-1.281823D+00
              MO Center= -3.7D-01,  1.8D+00,  4.7D-01, r^2= 7.2D-01
   Bfn.  Coefficient  Atom+Function         Bfn.  Coefficient  Atom+Function  
  ----- ------------  ---------------      ----- ------------  ---------------
     2      0.437488  1 O  s                  3      0.389068  1 O  s          
    20      0.190186  3 H  s                 15      0.170756  2 H  s          

 Vector    7  Occ=2.000000D+00  E=-7.265646D-01
              MO Center= -7.0D-01, -1.6D+00, -2.7D-01, r^2= 1.6D+00
   Bfn.  Coefficient  Atom+Function         Bfn.  Coefficient  Atom+Function  
  ----- ------------  ---------------      ----- ------------  ---------------
    29      0.399559  4 O  py                39     -0.324085  5 H  s          
    44      0.267746  6 H  s                 30      0.227309  4 O  pz         
    32      0.189323  4 O  py         

 Vector    8  Occ=2.000000D+00  E=-6.999005D-01
              MO Center=  8.5D-01, -4.6D-01, -1.1D-01, r^2= 2.2D+00
   Bfn.  Coefficient  Atom+Function         Bfn.  Coefficient  Atom+Function  
  ----- ------------  ---------------      ----- ------------  ---------------
    52      0.369538  7 O  px                63      0.287091  8 H  s          
    68     -0.266620  9 H  s                 54      0.196645  7 O  pz         
    55      0.175703  7 O  px                44      0.171887  6 H  s          
    28     -0.161711  4 O  px         

 Vector    9  Occ=2.000000D+00  E=-6.604332D-01
              MO Center= -1.2D-01,  1.5D+00,  3.7D-01, r^2= 1.8D+00
   Bfn.  Coefficient  Atom+Function         Bfn.  Coefficient  Atom+Function  
  ----- ------------  ---------------      ----- ------------  ---------------
     5      0.394457  1 O  py                15     -0.294210  2 H  s          
    20      0.290843  3 H  s                 53     -0.194424  7 O  py         
     8      0.182083  1 O  py                 4     -0.167303  1 O  px         

 Vector   10  Occ=2.000000D+00  E=-5.968336D-01
              MO Center= -2.7D-01, -1.1D+00, -3.2D-01, r^2= 2.6D+00
   Bfn.  Coefficient  Atom+Function         Bfn.  Coefficient  Atom+Function  
  ----- ------------  ---------------      ----- ------------  ---------------
    30     -0.280171  4 O  pz                27      0.277410  4 O  s          
    28      0.277959  4 O  px                29      0.245990  4 O  py         
    31      0.184761  4 O  px                33     -0.184159  4 O  pz         
    51     -0.184863  7 O  s                 44     -0.180656  6 H  s          
    54      0.178137  7 O  pz                63      0.177958  8 H  s          

 Vector   11  Occ=2.000000D+00  E=-5.667962D-01
              MO Center=  4.6D-01, -2.2D-01, -1.9D-01, r^2= 3.1D+00
   Bfn.  Coefficient  Atom+Function         Bfn.  Coefficient  Atom+Function  
  ----- ------------  ---------------      ----- ------------  ---------------
    53      0.383454  7 O  py                56      0.258938  7 O  py         
    30     -0.253563  4 O  pz                51      0.238754  7 O  s          
    33     -0.184478  4 O  pz                29      0.176381  4 O  py         
    27      0.166933  4 O  s                 54     -0.166286  7 O  pz         
     5      0.163150  1 O  py                68     -0.157273  9 H  s          

 Vector   12  Occ=2.000000D+00  E=-5.282825D-01
              MO Center= -4.4D-01,  2.7D-01,  6.2D-02, r^2= 3.8D+00
   Bfn.  Coefficient  Atom+Function         Bfn.  Coefficient  Atom+Function  
  ----- ------------  ---------------      ----- ------------  ---------------
     4      0.338037  1 O  px                28      0.312046  4 O  px         
     3     -0.243990  1 O  s                 31      0.243248  4 O  px         
     7      0.238332  1 O  px                30      0.216982  4 O  pz         
    54      0.187121  7 O  pz                33      0.177241  4 O  pz         
    20      0.167801  3 H  s                  5      0.164274  1 O  py         

 Vector   13  Occ=2.000000D+00  E=-5.150526D-01
              MO Center= -2.0D-01, -3.9D-01, -1.5D-01, r^2= 3.6D+00
   Bfn.  Coefficient  Atom+Function         Bfn.  Coefficient  Atom+Function  
  ----- ------------  ---------------      ----- ------------  ---------------
    28      0.387888  4 O  px                31      0.299506  4 O  px         
     4     -0.257435  1 O  px                30      0.225255  4 O  pz         
    54     -0.201375  7 O  pz                 7     -0.181621  1 O  px         
    53      0.182325  7 O  py                33      0.177082  4 O  pz         
     3      0.154313  1 O  s                 57     -0.151660  7 O  pz         

 Vector   14  Occ=2.000000D+00  E=-4.819580D-01
              MO Center=  9.0D-01,  3.8D-01, -6.0D-03, r^2= 2.0D+00
   Bfn.  Coefficient  Atom+Function         Bfn.  Coefficient  Atom+Function  
  ----- ------------  ---------------      ----- ------------  ---------------
    54      0.397304  7 O  pz                57      0.319638  7 O  pz         
    52     -0.298984  7 O  px                 4     -0.283107  1 O  px         
    53      0.240758  7 O  py                55     -0.240294  7 O  px         
     7     -0.202636  1 O  px                56      0.177070  7 O  py         

 Vector   15  Occ=2.000000D+00  E=-4.475854D-01
              MO Center= -5.3D-01,  1.8D+00,  4.8D-01, r^2= 6.5D-01
   Bfn.  Coefficient  Atom+Function         Bfn.  Coefficient  Atom+Function  
  ----- ------------  ---------------      ----- ------------  ---------------
     6      0.605794  1 O  pz                 9      0.487729  1 O  pz         

 Vector   16  Occ=0.000000D+00  E= 1.574978D-01
              MO Center= -6.2D-01, -1.6D+00,  7.8D-02, r^2= 5.3D+00
   Bfn.  Coefficient  Atom+Function         Bfn.  Coefficient  Atom+Function  
  ----- ------------  ---------------      ----- ------------  ---------------
    27      0.861276  4 O  s                 40     -0.792109  5 H  s          
    45     -0.623567  6 H  s                 64     -0.492629  8 H  s          
    51      0.355831  7 O  s                 21     -0.212026  3 H  s          
     3      0.193854  1 O  s                 32     -0.186780  4 O  py         
    33      0.169235  4 O  pz         

 Vector   17  Occ=0.000000D+00  E= 2.079958D-01
              MO Center=  1.1D+00, -5.0D-01,  3.6D-01, r^2= 7.4D+00
   Bfn.  Coefficient  Atom+Function         Bfn.  Coefficient  Atom+Function  
  ----- ------------  ---------------      ----- ------------  ---------------
    64      1.123635  8 H  s                 40     -0.677722  5 H  s          
    51     -0.680532  7 O  s                 21      0.500241  3 H  s          
    27      0.429836  4 O  s                  3     -0.340129  1 O  s          
    55     -0.233675  7 O  px                57     -0.233018  7 O  pz         
    32     -0.197708  4 O  py         

 Vector   18  Occ=0.000000D+00  E= 2.335970D-01
              MO Center= -1.9D-01,  3.7D-01,  4.8D-01, r^2= 9.0D+00
   Bfn.  Coefficient  Atom+Function         Bfn.  Coefficient  Atom+Function  
  ----- ------------  ---------------      ----- ------------  ---------------
    45      0.923640  6 H  s                 21      0.911646  3 H  s          
    40     -0.781221  5 H  s                 64     -0.660093  8 H  s          
     3     -0.560246  1 O  s                 51      0.382001  7 O  s          
    32     -0.301408  4 O  py                 8     -0.272630  1 O  py         
    33     -0.244098  4 O  pz                55      0.153389  7 O  px         

 Vector   19  Occ=0.000000D+00  E= 2.506411D-01
              MO Center= -7.7D-01,  1.8D-01,  4.3D-01, r^2= 9.0D+00
   Bfn.  Coefficient  Atom+Function         Bfn.  Coefficient  Atom+Function  
  ----- ------------  ---------------      ----- ------------  ---------------
    45      1.132384  6 H  s                 21     -0.966752  3 H  s          
    40     -0.936180  5 H  s                  3      0.533466  1 O  s          
    32     -0.376478  4 O  py                33     -0.304940  4 O  pz         
     8      0.289303  1 O  py                64      0.286763  8 H  s          
    69     -0.166558  9 H  s                 29     -0.157568  4 O  py         

 Vector   20  Occ=0.000000D+00  E= 3.745529D-01
              MO Center=  7.1D-01, -7.3D-01, -2.7D-01, r^2= 3.9D+00
   Bfn.  Coefficient  Atom+Function         Bfn.  Coefficient  Atom+Function  
  ----- ------------  ---------------      ----- ------------  ---------------
    69      1.968960  9 H  s                 64     -0.975324  8 H  s          
    51     -0.590948  7 O  s                 55      0.573226  7 O  px         
    16      0.355538  2 H  s                 40     -0.339009  5 H  s          
    31     -0.329580  4 O  px                45     -0.327306  6 H  s          
    21     -0.301718  3 H  s                 56      0.253466  7 O  py         

 Vector   21  Occ=0.000000D+00  E= 4.101610D-01
              MO Center=  4.5D-01,  1.1D+00,  2.5D-01, r^2= 4.1D+00
   Bfn.  Coefficient  Atom+Function         Bfn.  Coefficient  Atom+Function  
  ----- ------------  ---------------      ----- ------------  ---------------
    16      2.152591  2 H  s                 21     -0.921752  3 H  s          
    69     -0.915217  9 H  s                  3     -0.617733  1 O  s          
     8      0.526389  1 O  py                56     -0.435282  7 O  py         
     7     -0.394573  1 O  px                53     -0.222674  7 O  py         
     5      0.183416  1 O  py                32      0.168735  4 O  py         

 Vector   22  Occ=0.000000D+00  E= 7.268731D-01
              MO Center= -5.5D-01, -1.0D+00, -9.6D-02, r^2= 3.6D+00
   Bfn.  Coefficient  Atom+Function         Bfn.  Coefficient  Atom+Function  
  ----- ------------  ---------------      ----- ------------  ---------------
    44      0.841575  6 H  s                 39     -0.719545  5 H  s          
    45     -0.627310  6 H  s                 69      0.590420  9 H  s          
    40      0.458667  5 H  s                 15      0.438061  2 H  s          
    68     -0.421011  9 H  s                 32     -0.374093  4 O  py         
    16     -0.314469  2 H  s                 33     -0.228708  4 O  pz         

 Vector   23  Occ=0.000000D+00  E= 7.653560D-01
              MO Center=  9.1D-01, -8.9D-02,  4.0D-02, r^2= 3.4D+00
   Bfn.  Coefficient  Atom+Function         Bfn.  Coefficient  Atom+Function  
  ----- ------------  ---------------      ----- ------------  ---------------
    68     -0.871644  9 H  s                 69      0.804047  9 H  s          
    63      0.793698  8 H  s                 64     -0.609624  8 H  s          
    20      0.456501  3 H  s                 55     -0.344346  7 O  px         
    39      0.268899  5 H  s                 44     -0.259037  6 H  s          
    40     -0.226761  5 H  s                  8     -0.221362  1 O  py         

 Vector   24  Occ=0.000000D+00  E= 8.079121D-01
              MO Center= -8.6D-01, -1.7D+00, -4.4D-03, r^2= 3.0D+00
   Bfn.  Coefficient  Atom+Function         Bfn.  Coefficient  Atom+Function  
  ----- ------------  ---------------      ----- ------------  ---------------
    39      0.838803  5 H  s                 44      0.758807  6 H  s          
    45     -0.547701  6 H  s                 40     -0.531711  5 H  s          
    63      0.353220  8 H  s                 26     -0.288849  4 O  s          
    27      0.275204  4 O  s                 64     -0.244028  8 H  s          
    68      0.223783  9 H  s                 42     -0.216314  5 H  py         

 Vector   25  Occ=0.000000D+00  E= 8.341575D-01
              MO Center=  2.2D-01,  6.1D-01,  2.7D-01, r^2= 4.0D+00
   Bfn.  Coefficient  Atom+Function         Bfn.  Coefficient  Atom+Function  
  ----- ------------  ---------------      ----- ------------  ---------------
    15      0.920007  2 H  s                 16     -0.880610  2 H  s          
    45      0.498957  6 H  s                 44     -0.457653  6 H  s          
    21      0.452676  3 H  s                 63      0.452469  8 H  s          
    20     -0.429251  3 H  s                 51      0.387683  7 O  s          
    69     -0.357945  9 H  s                 68      0.332681  9 H  s          


 center of mass
 --------------
 x =  -0.01327255 y =   0.03677569 z =  -0.03479706

 moments of inertia (a.u.)
 ------------------
         424.035820681843         -29.831051823407           7.033983595301
         -29.831051823407         225.190188015347         -99.176842857108
           7.033983595301         -99.176842857108         589.772692501939

  Mulliken analysis of the total density
  --------------------------------------

    Atom       Charge   Shell Charges
 -----------   ------   -------------------------------------------------------
    1 O    8     8.39   2.00  0.83  0.84  2.82  1.89  0.01
    2 H    1     0.81   0.63  0.09  0.09
    3 H    1     0.85   0.69  0.08  0.08
    4 O    8     8.33   2.00  0.83  0.85  2.82  1.82  0.01
    5 H    1     0.83   0.68  0.07  0.08
    6 H    1     0.80   0.64  0.07  0.08
    7 O    8     8.36   2.00  0.83  0.84  2.83  1.84  0.01
    8 H    1     0.84   0.68  0.07  0.08
    9 H    1     0.79   0.62  0.08  0.09

       Multipole analysis of the density wrt the origin
       ------------------------------------------------

     L   x y z        total         open         nuclear
     -   - - -        -----         ----         -------
     0   0 0 0     -0.000000      0.000000     30.000000

     1   1 0 0      0.279452      0.000000     -0.000000
     1   0 1 0     -1.275319      0.000000      0.000000
     1   0 0 1      0.769578      0.000000      0.000000

     2   2 0 0    -12.757509      0.000000    111.214545
     2   1 1 0      3.071024      0.000000     19.582400
     2   1 0 1      1.228964      0.000000     -2.570468
     2   0 2 0     -6.499071      0.000000    228.887217
     2   0 1 1     -0.098321      0.000000     54.761887
     2   0 0 2    -14.909585      0.000000     17.004839


 Parallel integral file used      52 records with       0 large values

                              NWChem Gradients Module
                              -----------------------



  wavefunction    =   RHF     



                         RHF ENERGY GRADIENTS

    atom               coordinates                        gradient
                 x          y          z           x          y          z
   1 O      -1.059147   3.361347   0.911672   -0.027546  -0.005089  -0.001671
   2 H       0.499575   2.403508   0.559458    0.027695  -0.018969  -0.004445
   3 H      -0.521220   5.071217   1.245928    0.005002   0.020693   0.004632
   4 O      -1.627674  -3.055470  -0.802792    0.024848   0.007629  -0.037528
   5 H      -1.896267  -4.855736  -0.911053   -0.000857  -0.019678  -0.002924
   6 H      -2.548327  -2.484621   0.736520   -0.020713   0.014225   0.039667
   7 O       2.596414  -0.055376  -0.345903   -0.004128   0.031081  -0.011301
   8 H       3.827271  -0.712574   0.828967    0.013420  -0.007618   0.013349
   9 H       1.362227  -1.425802  -0.563632   -0.017721  -0.022272   0.000221

                 ----------------------------------------
                 |  Time  |  1-e(secs)   |  2-e(secs)   |
                 ----------------------------------------
                 |  CPU   |       0.01   |       0.68   |
                 ----------------------------------------
                 |  WALL  |       0.01   |       0.69   |
                 ----------------------------------------

 Task  times  cpu:        2.2s     wall:        2.3s


                                NWChem Input Module
                                -------------------


 Summary of allocated global arrays
-----------------------------------
  No active global arrays



                         GA Statistics for process    0
                         ------------------------------

       create   destroy   get      put      acc     scatter   gather  read&inc
calls:  249      249     8485     3847     3497        0        0      141     
number of processes/call 0.00e+00 0.00e+00 0.00e+00 0.00e+00 0.00e+00
bytes total:             1.41e+07 8.43e+06 2.03e+06 0.00e+00 0.00e+00 1.13e+03
bytes remote:            0.00e+00 0.00e+00 0.00e+00 0.00e+00 0.00e+00 0.00e+00
Max memory consumed for GA by this process: 539136 bytes

MA_summarize_allocated_blocks: starting scan ...
MA_summarize_allocated_blocks: scan completed: 0 heap blocks, 0 stack blocks
MA usage statistics:

	allocation statistics:
					      heap	     stack
					      ----	     -----
	current number of blocks	         0	         0
	maximum number of blocks	        18	        28
	current total bytes		         0	         0
	maximum total bytes		  57703128	  26171416
	maximum total K-bytes		     57704	     26172
	maximum total M-bytes		        58	        27


                                     CITATION
                                     --------
                Please cite the following reference when publishing
                           results obtained with NWChem:

          E. Aprà, E. J. Bylaska, W. A. de Jong, N. Govind, K. Kowalski,
       T. P. Straatsma, M. Valiev, H. J. J. van Dam, Y. Alexeev, J. Anchell,
       V. Anisimov, F. W. Aquino, R. Atta-Fynn, J. Autschbach, N. P. Bauman,
     J. C. Becca, D. E. Bernholdt, K. Bhaskaran-Nair, S. Bogatko, P. Borowski,
        J. Boschen, J. Brabec, A. Bruner, E. Cauët, Y. Chen, G. N. Chuev,
      C. J. Cramer, J. Daily, M. J. O. Deegan, T. H. Dunning Jr., M. Dupuis,
   K. G. Dyall, G. I. Fann, S. A. Fischer, A. Fonari, H. Früchtl, L. Gagliardi,
      J. Garza, N. Gawande, S. Ghosh, K. Glaesemann, A. W. Götz, J. Hammond,
       V. Helms, E. D. Hermes, K. Hirao, S. Hirata, M. Jacquelin, L. Jensen,
   B. G. Johnson, H. Jónsson, R. A. Kendall, M. Klemm, R. Kobayashi, V. Konkov,
      S. Krishnamoorthy, M. Krishnan, Z. Lin, R. D. Lins, R. J. Littlefield,
      A. J. Logsdail, K. Lopata, W. Ma, A. V. Marenich, J. Martin del Campo,
   D. Mejia-Rodriguez, J. E. Moore, J. M. Mullin, T. Nakajima, D. R. Nascimento,
    J. A. Nichols, P. J. Nichols, J. Nieplocha, A. Otero-de-la-Roza, B. Palmer,
    A. Panyala, T. Pirojsirikul, B. Peng, R. Peverati, J. Pittner, L. Pollack,
   R. M. Richard, P. Sadayappan, G. C. Schatz, W. A. Shelton, D. W. Silverstein,
   D. M. A. Smith, T. A. Soares, D. Song, M. Swart, H. L. Taylor, G. S. Thomas,
            V. Tipparaju, D. G. Truhlar, K. Tsemekhman, T. Van Voorhis,
     Á. Vázquez-Mayagoitia, P. Verma, O. Villa, A. Vishnu, K. D. Vogiatzis,
        D. Wang, J. H. Weare, M. J. Williamson, T. L. Windus, K. Woliński,
        A. T. Wong, Q. Wu, C. Yang, Q. Yu, M. Zacharias, Z. Zhang, Y. Zhao,
                                and R. J. Harrison
                        "NWChem: Past, present, and future
                         J. Chem. Phys. 152, 184102 (2020)
                               doi:10.1063/5.0004997

                                      AUTHORS
                                      -------
     E. Apra, E. J. Bylaska, N. Govind, K. Kowalski, M. Valiev, W. A. de Jong,
      T. P. Straatsma, H. J. J. van Dam, D. Wang, T. L. Windus, N. P. Bauman,
       A. Panyala, J. Hammond, J. Autschbach, K. Bhaskaran-Nair, J. Brabec,
    K. Lopata, S. A. Fischer, S. Krishnamoorthy, M. Jacquelin, W. Ma, M. Klemm,
       O. Villa, Y. Chen, V. Anisimov, F. Aquino, S. Hirata, M. T. Hackler,
           Eric Hermes, L. Jensen, J. E. Moore, J. C. Becca, V. Konjkov,
            D. Mejia-Rodriguez, T. Risthaus, M. Malagoli, A. Marenich,
   A. Otero-de-la-Roza, J. Mullin, P. Nichols, R. Peverati, J. Pittner, Y. Zhao,
        P.-D. Fan, A. Fonari, M. J. Williamson, R. J. Harrison, J. R. Rehr,
      M. Dupuis, D. Silverstein, D. M. A. Smith, J. Nieplocha, V. Tipparaju,
      M. Krishnan, B. E. Van Kuiken, A. Vazquez-Mayagoitia, M. Swart, Q. Wu,
   T. Van Voorhis, A. A. Auer, M. Nooijen, L. D. Crosby, E. Brown, G. Cisneros,
     G. I. Fann, H. Fruchtl, J. Garza, K. Hirao, R. A. Kendall, J. A. Nichols,
       K. Tsemekhman, K. Wolinski, J. Anchell, D. E. Bernholdt, P. Borowski,
       T. Clark, D. Clerc, H. Dachsel, M. J. O. Deegan, K. Dyall, D. Elwood,
      E. Glendening, M. Gutowski, A. C. Hess, J. Jaffe, B. G. Johnson, J. Ju,
        R. Kobayashi, R. Kutteh, Z. Lin, R. Littlefield, X. Long, B. Meng,
      T. Nakajima, S. Niu, L. Pollack, M. Rosing, K. Glaesemann, G. Sandrone,
      M. Stave, H. Taylor, G. Thomas, J. H. van Lenthe, A. T. Wong, Z. Zhang.

 Total times  cpu:        2.2s     wall:        2.3s
