 argument  1 = nwchem/input_2_10_1.nw



============================== echo of input deck ==============================
echo
memory 1000 mb
geometry noautosym noautoz
O -0.64071556 -0.48854013 1.6410419
H -0.19915392 0.37247798 1.5285638
H -1.54433112 -0.32408724 1.298356
O 0.57630762 -1.69154092 -0.42866929
H 0.43417462 -2.64420081 -0.48595869
H 0.08911917 -1.3894609 0.38589939
end
basis spherical
 * library cc-pvdz
end
task scf gradient
================================================================================


                                         
                                         


             Northwest Computational Chemistry Package (NWChem) 7.0.2
             --------------------------------------------------------


                    Environmental Molecular Sciences Laboratory
                       Pacific Northwest National Laboratory
                                Richland, WA 99352

                              Copyright (c) 1994-2020
                       Pacific Northwest National Laboratory
                            Battelle Memorial Institute

             NWChem is an open-source computational chemistry package
                        distributed under the terms of the
                      Educational Community License (ECL) 2.0
             A copy of the license is included with this distribution
                              in the LICENSE.TXT file

                                  ACKNOWLEDGMENT
                                  --------------

            This software and its documentation were developed at the
            EMSL at Pacific Northwest National Laboratory, a multiprogram
            national laboratory, operated for the U.S. Department of Energy
            by Battelle under Contract Number DE-AC05-76RL01830. Support
            for this work was provided by the Department of Energy Office
            of Biological and Environmental Research, Office of Basic
            Energy Sciences, and the Office of Advanced Scientific Computing.


           Job information
           ---------------

    hostname        = pop-os
    program         = nwchem
    date            = Tue Jul  6 14:10:28 2021

    compiled        = Wed_Jan_06_19:48:08_2021
    source          = /build/nwchem-ksKH2r/nwchem-7.0.2
    nwchem branch   = 7.0.2
    nwchem revision = N/A
    ga revision     = 5.7.1
    use scalapack   = T
    input           = nwchem/input_2_10_1.nw
    prefix          = input_2_10_1.
    data base       = ./input_2_10_1.db
    status          = startup
    nproc           =        1
    time left       =     -1s



           Memory information
           ------------------

    heap     =   32768000 doubles =    250.0 Mbytes
    stack    =   32767997 doubles =    250.0 Mbytes
    global   =   65536000 doubles =    500.0 Mbytes (distinct from heap & stack)
    total    =  131071997 doubles =   1000.0 Mbytes
    verify   = yes
    hardfail = no 


           Directory information
           ---------------------

  0 permanent = .
  0 scratch   = .




                                NWChem Input Module
                                -------------------



 Scaling coordinates for geometry "geometry" by  1.889725989
 (inverse scale =  0.529177249)



                             Geometry "geometry" -> ""
                             -------------------------

 Output coordinates in angstroms (scale by  1.889725989 to convert to a.u.)

  No.       Tag          Charge          X              Y              Z
 ---- ---------------- ---------- -------------- -------------- --------------
    1 O                    8.0000    -0.55394282     0.58275584     1.01974983
    2 H                    1.0000    -0.11238118     1.44377395     0.90727173
    3 H                    1.0000    -1.45755838     0.74720873     0.67706393
    4 O                    8.0000     0.66308036    -0.62024495    -1.04996136
    5 H                    1.0000     0.52094736    -1.57290484    -1.10725076
    6 H                    1.0000     0.17589191    -0.31816493    -0.23539268

      Atomic Mass 
      ----------- 

      O                 15.994910
      H                  1.007825


 Effective nuclear repulsion energy (a.u.)      38.0002798065

            Nuclear Dipole moment (a.u.) 
            ----------------------------
        X                 Y               Z
 ---------------- ---------------- ----------------
     0.0000000000     0.0000000000     0.0000000000


            XYZ format geometry
            -------------------
     6
 geometry
 O                    -0.55394282     0.58275584     1.01974983
 H                    -0.11238118     1.44377395     0.90727173
 H                    -1.45755838     0.74720873     0.67706393
 O                     0.66308036    -0.62024495    -1.04996136
 H                     0.52094736    -1.57290484    -1.10725076
 H                     0.17589191    -0.31816493    -0.23539268

 ==============================================================================
                                internuclear distances
 ------------------------------------------------------------------------------
       center one      |      center two      | atomic units |  angstroms
 ------------------------------------------------------------------------------
    2 H                |   1 O                |     1.84089  |     0.97416
    3 H                |   1 O                |     1.85251  |     0.98031
    5 H                |   4 O                |     1.82341  |     0.96491
    6 H                |   4 O                |     1.88227  |     0.99606
 ------------------------------------------------------------------------------
                         number of included internuclear distances:          4
 ==============================================================================



 ==============================================================================
                                 internuclear angles
 ------------------------------------------------------------------------------
        center 1       |       center 2       |       center 3       |  degrees
 ------------------------------------------------------------------------------
    2 H                |   1 O                |   3 H                |   103.25
    5 H                |   4 O                |   6 H                |   106.02
 ------------------------------------------------------------------------------
                            number of included internuclear angles:          2
 ==============================================================================





 Summary of "ao basis" -> "" (spherical)
 ------------------------------------------------------------------------------
       Tag                 Description            Shells   Functions and Types
 ---------------- ------------------------------  ------  ---------------------
 *                          cc-pvdz                   on all atoms 


                      Basis "ao basis" -> "ao basis" (spherical)
                      -----
  O (Oxygen)
  ----------
            Exponent  Coefficients 
       -------------- ---------------------------------------------------------
  1 S  1.17200000E+04  0.000710
  1 S  1.75900000E+03  0.005470
  1 S  4.00800000E+02  0.027837
  1 S  1.13700000E+02  0.104800
  1 S  3.70300000E+01  0.283062
  1 S  1.32700000E+01  0.448719
  1 S  5.02500000E+00  0.270952
  1 S  1.01300000E+00  0.015458

  2 S  1.17200000E+04 -0.000160
  2 S  1.75900000E+03 -0.001263
  2 S  4.00800000E+02 -0.006267
  2 S  1.13700000E+02 -0.025716
  2 S  3.70300000E+01 -0.070924
  2 S  1.32700000E+01 -0.165411
  2 S  5.02500000E+00 -0.116955
  2 S  1.01300000E+00  0.557368

  3 S  3.02300000E-01  1.000000

  4 P  1.77000000E+01  0.043018
  4 P  3.85400000E+00  0.228913
  4 P  1.04600000E+00  0.508728

  5 P  2.75300000E-01  1.000000

  6 D  1.18500000E+00  1.000000

  H (Hydrogen)
  ------------
            Exponent  Coefficients 
       -------------- ---------------------------------------------------------
  1 S  1.30100000E+01  0.019685
  1 S  1.96200000E+00  0.137977
  1 S  4.44600000E-01  0.478148

  2 S  1.22000000E-01  1.000000

  3 P  7.27000000E-01  1.000000



 Summary of "ao basis" -> "ao basis" (spherical)
 ------------------------------------------------------------------------------
       Tag                 Description            Shells   Functions and Types
 ---------------- ------------------------------  ------  ---------------------
 O                          cc-pvdz                  6       14   3s2p1d
 H                          cc-pvdz                  3        5   2s1p


                                 NWChem SCF Module
                                 -----------------



  ao basis        = "ao basis"
  functions       =    48
  atoms           =     6
  closed shells   =    10
  open shells     =     0
  charge          =   0.00
  wavefunction    = RHF 
  input vectors   = atomic
  output vectors  = ./input_2_10_1.movecs
  use symmetry    = F
  symmetry adapt  = F


 Summary of "ao basis" -> "ao basis" (spherical)
 ------------------------------------------------------------------------------
       Tag                 Description            Shells   Functions and Types
 ---------------- ------------------------------  ------  ---------------------
 O                          cc-pvdz                  6       14   3s2p1d
 H                          cc-pvdz                  3        5   2s1p



 Forming initial guess at       0.0s


      Superposition of Atomic Density Guess
      -------------------------------------

 Sum of atomic energies:        -151.52445821

      Non-variational initial energy
      ------------------------------

 Total energy =    -151.857606
 1-e energy   =    -282.907830
 2-e energy   =      93.049944
 HOMO         =      -0.460779
 LUMO         =       0.068206


 Starting SCF solution at       0.2s



 ----------------------------------------------
         Quadratically convergent ROHF

 Convergence threshold     :          1.000E-04
 Maximum no. of iterations :           30
 Final Fock-matrix accuracy:          1.000E-07
 ----------------------------------------------


 Integral file          = ./input_2_10_1.aoints.0
 Record size in doubles =  65536        No. of integs per rec  =  43688
 Max. records in memory =     23        Max. records in file   = 400565
 No. of bits per label  =      8        No. of bits per value  =     64


 #quartets = 4.293D+04 #integrals = 6.577D+05 #direct =  0.0% #cached =100.0%


              iter       energy          gnorm     gmax       time
             ----- ------------------- --------- --------- --------
                 1     -151.9914250322  1.11D+00  2.35D-01      0.4
                 2     -152.0505529433  2.45D-01  8.01D-02      0.4
                 3     -152.0554129276  2.11D-02  4.86D-03      0.4
                 4     -152.0554529121  3.94D-04  1.10D-04      0.5
                 5     -152.0554529240  8.56D-06  2.37D-06      0.5


       Final RHF  results 
       ------------------ 

         Total SCF energy =   -152.055452924021
      One-electron energy =   -285.570891933488
      Two-electron energy =     95.515159202968
 Nuclear repulsion energy =     38.000279806499

        Time for solution =      0.3s


             Final eigenvalues
             -----------------

              1      
    1  -20.5956
    2  -20.5084
    3   -1.3727
    4   -1.2865
    5   -0.7267
    6   -0.6738
    7   -0.6062
    8   -0.5462
    9   -0.5007
   10   -0.4535
   11    0.1594
   12    0.2341
   13    0.2352
   14    0.4013
   15    0.7312
   16    0.7872
   17    0.8222
   18    0.8618
   19    1.1076
   20    1.1865

                       ROHF Final Molecular Orbital Analysis
                       -------------------------------------

 Vector    2  Occ=2.000000D+00  E=-2.050839D+01
              MO Center=  6.6D-01, -6.2D-01, -1.0D+00, r^2= 1.5D-02
   Bfn.  Coefficient  Atom+Function         Bfn.  Coefficient  Atom+Function  
  ----- ------------  ---------------      ----- ------------  ---------------
    25      1.000971  4 O  s          

 Vector    3  Occ=2.000000D+00  E=-1.372716D+00
              MO Center= -6.0D-01,  7.0D-01,  9.3D-01, r^2= 5.8D-01
   Bfn.  Coefficient  Atom+Function         Bfn.  Coefficient  Atom+Function  
  ----- ------------  ---------------      ----- ------------  ---------------
     2      0.443261  1 O  s                  3      0.390160  1 O  s          
    15      0.182804  2 H  s                 20      0.179828  3 H  s          

 Vector    4  Occ=2.000000D+00  E=-1.286538D+00
              MO Center=  5.6D-01, -7.0D-01, -9.3D-01, r^2= 6.1D-01
   Bfn.  Coefficient  Atom+Function         Bfn.  Coefficient  Atom+Function  
  ----- ------------  ---------------      ----- ------------  ---------------
    26      0.440197  4 O  s                 27      0.394054  4 O  s          
    39      0.191098  5 H  s                 44      0.169277  6 H  s          

 Vector    5  Occ=2.000000D+00  E=-7.266660D-01
              MO Center= -6.4D-01,  7.7D-01,  9.3D-01, r^2= 7.8D-01
   Bfn.  Coefficient  Atom+Function         Bfn.  Coefficient  Atom+Function  
  ----- ------------  ---------------      ----- ------------  ---------------
     4      0.433469  1 O  px                15      0.317918  2 H  s          
    20     -0.317943  3 H  s                  5      0.225940  1 O  py         
     7      0.208361  1 O  px         

 Vector    6  Occ=2.000000D+00  E=-6.737905D-01
              MO Center=  3.3D-01, -4.8D-01, -5.4D-01, r^2= 1.7D+00
   Bfn.  Coefficient  Atom+Function         Bfn.  Coefficient  Atom+Function  
  ----- ------------  ---------------      ----- ------------  ---------------
    29      0.330131  4 O  py                44      0.294983  6 H  s          
    39     -0.280936  5 H  s                 30      0.249979  4 O  pz         
     5     -0.196446  1 O  py         

 Vector    7  Occ=2.000000D+00  E=-6.061556D-01
              MO Center= -4.1D-01,  4.0D-01,  8.0D-01, r^2= 1.5D+00
   Bfn.  Coefficient  Atom+Function         Bfn.  Coefficient  Atom+Function  
  ----- ------------  ---------------      ----- ------------  ---------------
     5      0.415316  1 O  py                 3     -0.324020  1 O  s          
     8      0.272095  1 O  py                 6     -0.236382  1 O  pz         
    20      0.197318  3 H  s                  4     -0.185008  1 O  px         
    15      0.184091  2 H  s                 29      0.171124  4 O  py         
     9     -0.166281  1 O  pz         

 Vector    8  Occ=2.000000D+00  E=-5.461633D-01
              MO Center=  6.0D-02, -3.3D-02, -2.8D-02, r^2= 2.6D+00
   Bfn.  Coefficient  Atom+Function         Bfn.  Coefficient  Atom+Function  
  ----- ------------  ---------------      ----- ------------  ---------------
     6      0.425345  1 O  pz                 9      0.329531  1 O  pz         
    29      0.302922  4 O  py                27      0.257996  4 O  s          
    39     -0.218065  5 H  s                 32      0.186799  4 O  py         
    28      0.162761  4 O  px         

 Vector    9  Occ=2.000000D+00  E=-5.007005D-01
              MO Center=  1.6D-01, -9.0D-02, -2.1D-01, r^2= 2.4D+00
   Bfn.  Coefficient  Atom+Function         Bfn.  Coefficient  Atom+Function  
  ----- ------------  ---------------      ----- ------------  ---------------
     6      0.359057  1 O  pz                30      0.347542  4 O  pz         
     9      0.284299  1 O  pz                33      0.245532  4 O  pz         
    28     -0.237683  4 O  px                44      0.194653  6 H  s          
    27     -0.180442  4 O  s                 31     -0.167348  4 O  px         
     5      0.165307  1 O  py         

 Vector   10  Occ=2.000000D+00  E=-4.535230D-01
              MO Center=  6.5D-01, -6.3D-01, -1.0D+00, r^2= 6.2D-01
   Bfn.  Coefficient  Atom+Function         Bfn.  Coefficient  Atom+Function  
  ----- ------------  ---------------      ----- ------------  ---------------
    28      0.516181  4 O  px                31      0.417108  4 O  px         
    30      0.338312  4 O  pz                33      0.271730  4 O  pz         

 Vector   11  Occ=0.000000D+00  E= 1.593662D-01
              MO Center= -8.2D-01,  9.6D-01,  6.0D-01, r^2= 3.8D+00
   Bfn.  Coefficient  Atom+Function         Bfn.  Coefficient  Atom+Function  
  ----- ------------  ---------------      ----- ------------  ---------------
     3      0.925730  1 O  s                 21     -0.843735  3 H  s          
    16     -0.722863  2 H  s                 40     -0.347620  5 H  s          
     8      0.270066  1 O  py                27      0.228926  4 O  s          
     7     -0.153321  1 O  px         

 Vector   12  Occ=0.000000D+00  E= 2.341337D-01
              MO Center= -8.9D-02,  3.2D-01,  1.5D-01, r^2= 6.3D+00
   Bfn.  Coefficient  Atom+Function         Bfn.  Coefficient  Atom+Function  
  ----- ------------  ---------------      ----- ------------  ---------------
    16      1.280199  2 H  s                 21     -0.893991  3 H  s          
    40     -0.843356  5 H  s                 27      0.514037  4 O  s          
     7     -0.406536  1 O  px                 8     -0.317425  1 O  py         
    32     -0.264183  4 O  py                 3     -0.205587  1 O  s          
     5     -0.167303  1 O  py                 4     -0.164581  1 O  px         

 Vector   13  Occ=0.000000D+00  E= 2.352136D-01
              MO Center= -2.8D-01, -6.1D-01, -3.6D-01, r^2= 6.2D+00
   Bfn.  Coefficient  Atom+Function         Bfn.  Coefficient  Atom+Function  
  ----- ------------  ---------------      ----- ------------  ---------------
    40     -1.095806  5 H  s                 21      1.048133  3 H  s          
    16     -0.705738  2 H  s                 27      0.671474  4 O  s          
     7      0.404321  1 O  px                32     -0.344910  4 O  py         
     4      0.197825  1 O  px                 3     -0.184383  1 O  s          
    29     -0.158660  4 O  py         

 Vector   14  Occ=0.000000D+00  E= 4.012531D-01
              MO Center=  1.3D-01, -4.2D-01, -1.7D-01, r^2= 3.4D+00
   Bfn.  Coefficient  Atom+Function         Bfn.  Coefficient  Atom+Function  
  ----- ------------  ---------------      ----- ------------  ---------------
    45      2.250917  6 H  s                 40     -0.994331  5 H  s          
    27     -0.631592  4 O  s                 33     -0.496305  4 O  pz         
    32     -0.444555  4 O  py                21     -0.389978  3 H  s          
    16     -0.384773  2 H  s                  8      0.285340  1 O  py         
    31      0.245126  4 O  px                 9      0.231247  1 O  pz         

 Vector   15  Occ=0.000000D+00  E= 7.312159D-01
              MO Center= -6.4D-01,  7.8D-01,  7.6D-01, r^2= 2.1D+00
   Bfn.  Coefficient  Atom+Function         Bfn.  Coefficient  Atom+Function  
  ----- ------------  ---------------      ----- ------------  ---------------
    20     -0.939625  3 H  s                 15      0.900362  2 H  s          
    21      0.719161  3 H  s                 16     -0.643682  2 H  s          
     7     -0.374474  1 O  px                39     -0.267891  5 H  s          
     8     -0.223645  1 O  py                 4     -0.216185  1 O  px         
    40      0.151838  5 H  s                 45     -0.150576  6 H  s          

 Vector   16  Occ=0.000000D+00  E= 7.872039D-01
              MO Center=  1.4D-01, -1.5D-01, -1.8D-01, r^2= 2.1D+00
   Bfn.  Coefficient  Atom+Function         Bfn.  Coefficient  Atom+Function  
  ----- ------------  ---------------      ----- ------------  ---------------
    45      1.252708  6 H  s                 44     -1.102449  6 H  s          
    15      0.460907  2 H  s                 16     -0.417247  2 H  s          
    40     -0.356325  5 H  s                 27     -0.272049  4 O  s          
    20      0.247237  3 H  s                 39      0.222043  5 H  s          
    21     -0.206419  3 H  s                 30      0.206456  4 O  pz         

 Vector   17  Occ=0.000000D+00  E= 8.221827D-01
              MO Center= -5.1D-01,  4.2D-01,  2.5D-01, r^2= 3.7D+00
   Bfn.  Coefficient  Atom+Function         Bfn.  Coefficient  Atom+Function  
  ----- ------------  ---------------      ----- ------------  ---------------
    20      0.791911  3 H  s                 39     -0.632708  5 H  s          
    15      0.609312  2 H  s                 21     -0.602410  3 H  s          
    40      0.404304  5 H  s                 16     -0.365245  2 H  s          
    44      0.359039  6 H  s                  3      0.300678  1 O  s          
     2     -0.266436  1 O  s                 32     -0.247070  4 O  py         

 Vector   18  Occ=0.000000D+00  E= 8.617883D-01
              MO Center=  2.9D-01, -7.3D-01, -5.4D-01, r^2= 3.5D+00
   Bfn.  Coefficient  Atom+Function         Bfn.  Coefficient  Atom+Function  
  ----- ------------  ---------------      ----- ------------  ---------------
    39      1.004823  5 H  s                 40     -0.744794  5 H  s          
    16     -0.465147  2 H  s                 15      0.427651  2 H  s          
     3      0.330382  1 O  s                 42     -0.267113  5 H  py         
    29      0.232523  4 O  py                44      0.229598  6 H  s          
    26     -0.208225  4 O  s                 27      0.199098  4 O  s          

 Vector   19  Occ=0.000000D+00  E= 1.107556D+00
              MO Center= -2.7D-01,  2.6D-01,  5.8D-01, r^2= 2.3D+00
   Bfn.  Coefficient  Atom+Function         Bfn.  Coefficient  Atom+Function  
  ----- ------------  ---------------      ----- ------------  ---------------
     8      0.839491  1 O  py                 9     -0.695585  1 O  pz         
     3      0.611532  1 O  s                  6      0.540111  1 O  pz         
    32      0.514835  4 O  py                 5     -0.441457  1 O  py         
    20     -0.408879  3 H  s                 15     -0.403290  2 H  s          
    29     -0.333333  4 O  py                 7     -0.289982  1 O  px         

 Vector   20  Occ=0.000000D+00  E= 1.186534D+00
              MO Center= -5.2D-02,  1.4D-01,  1.8D-01, r^2= 3.1D+00
   Bfn.  Coefficient  Atom+Function         Bfn.  Coefficient  Atom+Function  
  ----- ------------  ---------------      ----- ------------  ---------------
     7      1.176880  1 O  px                21      0.720624  3 H  s          
    16     -0.665402  2 H  s                  4     -0.554012  1 O  px         
    31      0.508309  4 O  px                32      0.423451  4 O  py         
    27     -0.417546  4 O  s                 28     -0.413107  4 O  px         
     8      0.389070  1 O  py                39      0.266647  5 H  s          


 center of mass
 --------------
 x =   0.04541669 y =  -0.01560079 z =  -0.01257228

 moments of inertia (a.u.)
 ------------------
         191.727400964234          49.558677926715          78.155214540673
          49.558677926715         182.930730895702         -84.207040106673
          78.155214540673         -84.207040106673         111.488795754054

  Mulliken analysis of the total density
  --------------------------------------

    Atom       Charge   Shell Charges
 -----------   ------   -------------------------------------------------------
    1 O    8     8.31   2.00  0.84  0.84  2.81  1.80  0.01
    2 H    1     0.81   0.67  0.06  0.08
    3 H    1     0.82   0.66  0.07  0.08
    4 O    8     8.40   2.00  0.83  0.85  2.82  1.90  0.01
    5 H    1     0.85   0.69  0.08  0.08
    6 H    1     0.80   0.62  0.09  0.09

       Multipole analysis of the density wrt the origin
       ------------------------------------------------

     L   x y z        total         open         nuclear
     -   - - -        -----         ----         -------
     0   0 0 0     -0.000000      0.000000     20.000000

     1   1 0 0     -0.879026      0.000000      0.000000
     1   0 1 0      0.426552      0.000000      0.000000
     1   0 0 1      0.429956      0.000000      0.000000

     2   2 0 0     -8.656357      0.000000     30.038564
     2   1 1 0     -0.659639      0.000000    -28.566379
     2   1 0 1      1.156321      0.000000    -42.123483
     2   0 2 0     -4.721447      0.000000     39.326446
     2   0 1 1      1.520348      0.000000     48.553206
     2   0 0 2    -12.639277      0.000000     70.355110


 Parallel integral file used      16 records with       0 large values

                              NWChem Gradients Module
                              -----------------------



  wavefunction    =   RHF     



                         RHF ENERGY GRADIENTS

    atom               coordinates                        gradient
                 x          y          z           x          y          z
   1 O      -1.046800   1.101249   1.927048    0.025223  -0.035834   0.008665
   2 H      -0.212370   2.728337   1.714495    0.010654   0.023775  -0.004257
   3 H      -2.754386   1.412020   1.279465   -0.029371   0.005719  -0.012779
   4 O       1.253040  -1.172093  -1.984139    0.020577   0.009188  -0.025018
   5 H       0.984448  -2.972359  -2.092401   -0.002482  -0.021242  -0.003345
   6 H       0.332388  -0.601245  -0.444828   -0.024600   0.018394   0.036736

                 ----------------------------------------
                 |  Time  |  1-e(secs)   |  2-e(secs)   |
                 ----------------------------------------
                 |  CPU   |       0.00   |       0.36   |
                 ----------------------------------------
                 |  WALL  |       0.00   |       0.36   |
                 ----------------------------------------

 Task  times  cpu:        0.9s     wall:        0.9s


                                NWChem Input Module
                                -------------------


 Summary of allocated global arrays
-----------------------------------
  No active global arrays



                         GA Statistics for process    0
                         ------------------------------

       create   destroy   get      put      acc     scatter   gather  read&inc
calls:  249      249     6359     2326     2356        0        0      115     
number of processes/call 0.00e+00 0.00e+00 0.00e+00 0.00e+00 0.00e+00
bytes total:             6.37e+06 3.81e+06 9.06e+05 0.00e+00 0.00e+00 9.20e+02
bytes remote:            0.00e+00 0.00e+00 0.00e+00 0.00e+00 0.00e+00 0.00e+00
Max memory consumed for GA by this process: 239616 bytes

MA_summarize_allocated_blocks: starting scan ...
MA_summarize_allocated_blocks: scan completed: 0 heap blocks, 0 stack blocks
MA usage statistics:

	allocation statistics:
					      heap	     stack
					      ----	     -----
	current number of blocks	         0	         0
	maximum number of blocks	        18	        28
	current total bytes		         0	         0
	maximum total bytes		  12084272	  22510280
	maximum total K-bytes		     12085	     22511
	maximum total M-bytes		        13	        23


                                     CITATION
                                     --------
                Please cite the following reference when publishing
                           results obtained with NWChem:

          E. Aprà, E. J. Bylaska, W. A. de Jong, N. Govind, K. Kowalski,
       T. P. Straatsma, M. Valiev, H. J. J. van Dam, Y. Alexeev, J. Anchell,
       V. Anisimov, F. W. Aquino, R. Atta-Fynn, J. Autschbach, N. P. Bauman,
     J. C. Becca, D. E. Bernholdt, K. Bhaskaran-Nair, S. Bogatko, P. Borowski,
        J. Boschen, J. Brabec, A. Bruner, E. Cauët, Y. Chen, G. N. Chuev,
      C. J. Cramer, J. Daily, M. J. O. Deegan, T. H. Dunning Jr., M. Dupuis,
   K. G. Dyall, G. I. Fann, S. A. Fischer, A. Fonari, H. Früchtl, L. Gagliardi,
      J. Garza, N. Gawande, S. Ghosh, K. Glaesemann, A. W. Götz, J. Hammond,
       V. Helms, E. D. Hermes, K. Hirao, S. Hirata, M. Jacquelin, L. Jensen,
   B. G. Johnson, H. Jónsson, R. A. Kendall, M. Klemm, R. Kobayashi, V. Konkov,
      S. Krishnamoorthy, M. Krishnan, Z. Lin, R. D. Lins, R. J. Littlefield,
      A. J. Logsdail, K. Lopata, W. Ma, A. V. Marenich, J. Martin del Campo,
   D. Mejia-Rodriguez, J. E. Moore, J. M. Mullin, T. Nakajima, D. R. Nascimento,
    J. A. Nichols, P. J. Nichols, J. Nieplocha, A. Otero-de-la-Roza, B. Palmer,
    A. Panyala, T. Pirojsirikul, B. Peng, R. Peverati, J. Pittner, L. Pollack,
   R. M. Richard, P. Sadayappan, G. C. Schatz, W. A. Shelton, D. W. Silverstein,
   D. M. A. Smith, T. A. Soares, D. Song, M. Swart, H. L. Taylor, G. S. Thomas,
            V. Tipparaju, D. G. Truhlar, K. Tsemekhman, T. Van Voorhis,
     Á. Vázquez-Mayagoitia, P. Verma, O. Villa, A. Vishnu, K. D. Vogiatzis,
        D. Wang, J. H. Weare, M. J. Williamson, T. L. Windus, K. Woliński,
        A. T. Wong, Q. Wu, C. Yang, Q. Yu, M. Zacharias, Z. Zhang, Y. Zhao,
                                and R. J. Harrison
                        "NWChem: Past, present, and future
                         J. Chem. Phys. 152, 184102 (2020)
                               doi:10.1063/5.0004997

                                      AUTHORS
                                      -------
     E. Apra, E. J. Bylaska, N. Govind, K. Kowalski, M. Valiev, W. A. de Jong,
      T. P. Straatsma, H. J. J. van Dam, D. Wang, T. L. Windus, N. P. Bauman,
       A. Panyala, J. Hammond, J. Autschbach, K. Bhaskaran-Nair, J. Brabec,
    K. Lopata, S. A. Fischer, S. Krishnamoorthy, M. Jacquelin, W. Ma, M. Klemm,
       O. Villa, Y. Chen, V. Anisimov, F. Aquino, S. Hirata, M. T. Hackler,
           Eric Hermes, L. Jensen, J. E. Moore, J. C. Becca, V. Konjkov,
            D. Mejia-Rodriguez, T. Risthaus, M. Malagoli, A. Marenich,
   A. Otero-de-la-Roza, J. Mullin, P. Nichols, R. Peverati, J. Pittner, Y. Zhao,
        P.-D. Fan, A. Fonari, M. J. Williamson, R. J. Harrison, J. R. Rehr,
      M. Dupuis, D. Silverstein, D. M. A. Smith, J. Nieplocha, V. Tipparaju,
      M. Krishnan, B. E. Van Kuiken, A. Vazquez-Mayagoitia, M. Swart, Q. Wu,
   T. Van Voorhis, A. A. Auer, M. Nooijen, L. D. Crosby, E. Brown, G. Cisneros,
     G. I. Fann, H. Fruchtl, J. Garza, K. Hirao, R. A. Kendall, J. A. Nichols,
       K. Tsemekhman, K. Wolinski, J. Anchell, D. E. Bernholdt, P. Borowski,
       T. Clark, D. Clerc, H. Dachsel, M. J. O. Deegan, K. Dyall, D. Elwood,
      E. Glendening, M. Gutowski, A. C. Hess, J. Jaffe, B. G. Johnson, J. Ju,
        R. Kobayashi, R. Kutteh, Z. Lin, R. Littlefield, X. Long, B. Meng,
      T. Nakajima, S. Niu, L. Pollack, M. Rosing, K. Glaesemann, G. Sandrone,
      M. Stave, H. Taylor, G. Thomas, J. H. van Lenthe, A. T. Wong, Z. Zhang.

 Total times  cpu:        0.9s     wall:        0.9s
