 argument  1 = nwchem/input_4_4_at_worker_2.nw



============================== echo of input deck ==============================
echo
memory 1000 mb
geometry noautosym noautoz
O 0.87715956 1.70409266 0.47858616
H 1.70199937 1.19722607 0.29220265
H 1.16181787 2.60891668 0.65546661
O -0.82054445 0.61636011 -1.6312343
H -0.26682713 1.17302621 -1.05309865
H -0.36885969 -0.24447946 -1.58195952
O 0.57630762 -1.69154092 -0.42866929
H 0.43417462 -2.64420081 -0.48595869
H 0.08911917 -1.3894609 0.38589939
O 2.81159896 -0.10395953 -0.18689424
H 3.46294039 -0.4517338 0.43482057
H 2.1584952 -0.82915775 -0.30211113
end
basis spherical
 * library cc-pvdz
end
task scf gradient
================================================================================


                                         
                                         


             Northwest Computational Chemistry Package (NWChem) 7.0.2
             --------------------------------------------------------


                    Environmental Molecular Sciences Laboratory
                       Pacific Northwest National Laboratory
                                Richland, WA 99352

                              Copyright (c) 1994-2020
                       Pacific Northwest National Laboratory
                            Battelle Memorial Institute

             NWChem is an open-source computational chemistry package
                        distributed under the terms of the
                      Educational Community License (ECL) 2.0
             A copy of the license is included with this distribution
                              in the LICENSE.TXT file

                                  ACKNOWLEDGMENT
                                  --------------

            This software and its documentation were developed at the
            EMSL at Pacific Northwest National Laboratory, a multiprogram
            national laboratory, operated for the U.S. Department of Energy
            by Battelle under Contract Number DE-AC05-76RL01830. Support
            for this work was provided by the Department of Energy Office
            of Biological and Environmental Research, Office of Basic
            Energy Sciences, and the Office of Advanced Scientific Computing.


           Job information
           ---------------

    hostname        = pop-os
    program         = nwchem
    date            = Thu Jul  8 18:19:55 2021

    compiled        = Wed_Jan_06_19:48:08_2021
    source          = /build/nwchem-ksKH2r/nwchem-7.0.2
    nwchem branch   = 7.0.2
    nwchem revision = N/A
    ga revision     = 5.7.1
    use scalapack   = T
    input           = nwchem/input_4_4_at_worker_2.nw
    prefix          = input_4_4_at_worker_2.
    data base       = ./input_4_4_at_worker_2.db
    status          = startup
    nproc           =        1
    time left       =     -1s



           Memory information
           ------------------

    heap     =   32768000 doubles =    250.0 Mbytes
    stack    =   32767997 doubles =    250.0 Mbytes
    global   =   65536000 doubles =    500.0 Mbytes (distinct from heap & stack)
    total    =  131071997 doubles =   1000.0 Mbytes
    verify   = yes
    hardfail = no 


           Directory information
           ---------------------

  0 permanent = .
  0 scratch   = .




                                NWChem Input Module
                                -------------------



 Scaling coordinates for geometry "geometry" by  1.889725989
 (inverse scale =  0.529177249)



                             Geometry "geometry" -> ""
                             -------------------------

 Output coordinates in angstroms (scale by  1.889725989 to convert to a.u.)

  No.       Tag          Charge          X              Y              Z
 ---- ---------------- ---------- -------------- -------------- --------------
    1 O                    8.0000    -0.02106627     1.61359879     0.87359696
    2 H                    1.0000     0.80377354     1.10673220     0.68721345
    3 H                    1.0000     0.26359204     2.51842281     1.05047741
    4 O                    8.0000    -1.71877028     0.52586624    -1.23622350
    5 H                    1.0000    -1.16505296     1.08253234    -0.65808785
    6 H                    1.0000    -1.26708552    -0.33497333    -1.18694872
    7 O                    8.0000    -0.32191821    -1.78203479    -0.03365849
    8 H                    1.0000    -0.46405121    -2.73469468    -0.09094789
    9 H                    1.0000    -0.80910666    -1.47995477     0.78091019
   10 O                    8.0000     1.91337313    -0.19445340     0.20811656
   11 H                    1.0000     2.56471456    -0.54222767     0.82983137
   12 H                    1.0000     1.26026937    -0.91965162     0.09289967

      Atomic Mass 
      ----------- 

      O                 15.994910
      H                  1.007825


 Effective nuclear repulsion energy (a.u.)     139.6605314956

            Nuclear Dipole moment (a.u.) 
            ----------------------------
        X                 Y               Z
 ---------------- ---------------- ----------------
    -0.0000000000     0.0000000000     0.0000000000


            XYZ format geometry
            -------------------
    12
 geometry
 O                    -0.02106627     1.61359879     0.87359696
 H                     0.80377354     1.10673220     0.68721345
 H                     0.26359204     2.51842281     1.05047741
 O                    -1.71877028     0.52586624    -1.23622350
 H                    -1.16505296     1.08253234    -0.65808785
 H                    -1.26708552    -0.33497333    -1.18694872
 O                    -0.32191821    -1.78203479    -0.03365849
 H                    -0.46405121    -2.73469468    -0.09094789
 H                    -0.80910666    -1.47995477     0.78091019
 O                     1.91337313    -0.19445340     0.20811656
 H                     2.56471456    -0.54222767     0.82983137
 H                     1.26026937    -0.91965162     0.09289967

 ==============================================================================
                                internuclear distances
 ------------------------------------------------------------------------------
       center one      |      center two      | atomic units |  angstroms
 ------------------------------------------------------------------------------
    2 H                |   1 O                |     1.86309  |     0.98591
    3 H                |   1 O                |     1.82339  |     0.96490
    5 H                |   4 O                |     1.84258  |     0.97505
    6 H                |   4 O                |     1.83944  |     0.97339
    8 H                |   7 O                |     1.82341  |     0.96491
    9 H                |   7 O                |     1.88227  |     0.99606
   11 H                |  10 O                |     1.82407  |     0.96526
   12 H                |  10 O                |     1.85707  |     0.98272
 ------------------------------------------------------------------------------
                         number of included internuclear distances:          8
 ==============================================================================



 ==============================================================================
                                 internuclear angles
 ------------------------------------------------------------------------------
        center 1       |       center 2       |       center 3       |  degrees
 ------------------------------------------------------------------------------
    2 H                |   1 O                |   3 H                |   105.66
    5 H                |   4 O                |   6 H                |   102.20
    8 H                |   7 O                |   9 H                |   106.02
   11 H                |  10 O                |  12 H                |   104.96
 ------------------------------------------------------------------------------
                            number of included internuclear angles:          4
 ==============================================================================





 Summary of "ao basis" -> "" (spherical)
 ------------------------------------------------------------------------------
       Tag                 Description            Shells   Functions and Types
 ---------------- ------------------------------  ------  ---------------------
 *                          cc-pvdz                   on all atoms 


                      Basis "ao basis" -> "ao basis" (spherical)
                      -----
  O (Oxygen)
  ----------
            Exponent  Coefficients 
       -------------- ---------------------------------------------------------
  1 S  1.17200000E+04  0.000710
  1 S  1.75900000E+03  0.005470
  1 S  4.00800000E+02  0.027837
  1 S  1.13700000E+02  0.104800
  1 S  3.70300000E+01  0.283062
  1 S  1.32700000E+01  0.448719
  1 S  5.02500000E+00  0.270952
  1 S  1.01300000E+00  0.015458

  2 S  1.17200000E+04 -0.000160
  2 S  1.75900000E+03 -0.001263
  2 S  4.00800000E+02 -0.006267
  2 S  1.13700000E+02 -0.025716
  2 S  3.70300000E+01 -0.070924
  2 S  1.32700000E+01 -0.165411
  2 S  5.02500000E+00 -0.116955
  2 S  1.01300000E+00  0.557368

  3 S  3.02300000E-01  1.000000

  4 P  1.77000000E+01  0.043018
  4 P  3.85400000E+00  0.228913
  4 P  1.04600000E+00  0.508728

  5 P  2.75300000E-01  1.000000

  6 D  1.18500000E+00  1.000000

  H (Hydrogen)
  ------------
            Exponent  Coefficients 
       -------------- ---------------------------------------------------------
  1 S  1.30100000E+01  0.019685
  1 S  1.96200000E+00  0.137977
  1 S  4.44600000E-01  0.478148

  2 S  1.22000000E-01  1.000000

  3 P  7.27000000E-01  1.000000



 Summary of "ao basis" -> "ao basis" (spherical)
 ------------------------------------------------------------------------------
       Tag                 Description            Shells   Functions and Types
 ---------------- ------------------------------  ------  ---------------------
 O                          cc-pvdz                  6       14   3s2p1d
 H                          cc-pvdz                  3        5   2s1p


                                 NWChem SCF Module
                                 -----------------



  ao basis        = "ao basis"
  functions       =    96
  atoms           =    12
  closed shells   =    20
  open shells     =     0
  charge          =   0.00
  wavefunction    = RHF 
  input vectors   = atomic
  output vectors  = ./input_4_4_at_worker_2.movecs
  use symmetry    = F
  symmetry adapt  = F


 Summary of "ao basis" -> "ao basis" (spherical)
 ------------------------------------------------------------------------------
       Tag                 Description            Shells   Functions and Types
 ---------------- ------------------------------  ------  ---------------------
 O                          cc-pvdz                  6       14   3s2p1d
 H                          cc-pvdz                  3        5   2s1p



 Forming initial guess at       0.1s


      Superposition of Atomic Density Guess
      -------------------------------------

 Sum of atomic energies:        -303.04891642

      Non-variational initial energy
      ------------------------------

 Total energy =    -303.762217
 1-e energy   =    -693.098969
 2-e energy   =     249.676221
 HOMO         =      -0.459224
 LUMO         =       0.042538


 Starting SCF solution at       0.6s



 ----------------------------------------------
         Quadratically convergent ROHF

 Convergence threshold     :          1.000E-04
 Maximum no. of iterations :           30
 Final Fock-matrix accuracy:          1.000E-07
 ----------------------------------------------


 Integral file          = ./input_4_4_at_worker_2.aoints.0
 Record size in doubles =  65536        No. of integs per rec  =  43688
 Max. records in memory =    339        Max. records in file   = 400261
 No. of bits per label  =      8        No. of bits per value  =     64


 #quartets = 5.139D+05 #integrals = 6.146D+06 #direct =  0.0% #cached =100.0%


              iter       energy          gnorm     gmax       time
             ----- ------------------- --------- --------- --------
                 1     -304.0172463382  1.50D+00  2.64D-01      2.0
                 2     -304.1236842582  3.33D-01  7.01D-02      2.2
                 3     -304.1326766705  2.69D-02  3.57D-03      2.6
                 4     -304.1327425850  5.23D-04  1.05D-04      3.0
                 5     -304.1327426050  2.35D-06  3.80D-07      3.5


       Final RHF  results 
       ------------------ 

         Total SCF energy =   -304.132742604978
      One-electron energy =   -698.436444726883
      Two-electron energy =    254.643170626279
 Nuclear repulsion energy =    139.660531495626

        Time for solution =      2.9s


             Final eigenvalues
             -----------------

              1      
    1  -20.6139
    2  -20.5657
    3  -20.5370
    4  -20.4932
    5   -1.3873
    6   -1.3481
    7   -1.3160
    8   -1.2738
    9   -0.7513
   10   -0.7192
   11   -0.6912
   12   -0.6439
   13   -0.6211
   14   -0.5849
   15   -0.5664
   16   -0.5369
   17   -0.5118
   18   -0.5015
   19   -0.4746
   20   -0.4373
   21    0.1421
   22    0.1932
   23    0.2173
   24    0.2334
   25    0.3056
   26    0.3642
   27    0.3789
   28    0.4121
   29    0.7053
   30    0.7487

                       ROHF Final Molecular Orbital Analysis
                       -------------------------------------

 Vector    5  Occ=2.000000D+00  E=-1.387332D+00
              MO Center= -3.2D-01, -1.8D+00,  6.4D-02, r^2= 7.6D-01
   Bfn.  Coefficient  Atom+Function         Bfn.  Coefficient  Atom+Function  
  ----- ------------  ---------------      ----- ------------  ---------------
    50      0.438634   7 O  s                51      0.393021   7 O  s         
    63      0.182880   8 H  s                68      0.167019   9 H  s         

 Vector    6  Occ=2.000000D+00  E=-1.348104D+00
              MO Center=  1.7D+00, -2.6D-01,  3.1D-01, r^2= 1.2D+00
   Bfn.  Coefficient  Atom+Function         Bfn.  Coefficient  Atom+Function  
  ----- ------------  ---------------      ----- ------------  ---------------
    74      0.422905  10 O  s                75      0.377998  10 O  s         
    87      0.178803  11 H  s                92      0.164517  12 H  s         

 Vector    7  Occ=2.000000D+00  E=-1.315964D+00
              MO Center=  2.1D-01,  1.5D+00,  8.1D-01, r^2= 1.1D+00
   Bfn.  Coefficient  Atom+Function         Bfn.  Coefficient  Atom+Function  
  ----- ------------  ---------------      ----- ------------  ---------------
     2      0.427861   1 O  s                 3      0.383595   1 O  s         
    20      0.183405   3 H  s                15      0.163620   2 H  s         

 Vector    8  Occ=2.000000D+00  E=-1.273760D+00
              MO Center= -1.6D+00,  4.9D-01, -1.1D+00, r^2= 6.4D-01
   Bfn.  Coefficient  Atom+Function         Bfn.  Coefficient  Atom+Function  
  ----- ------------  ---------------      ----- ------------  ---------------
    26      0.438986   4 O  s                27      0.388702   4 O  s         
    44      0.186668   6 H  s                39      0.181217   5 H  s         

 Vector    9  Occ=2.000000D+00  E=-7.513290D-01
              MO Center= -2.5D-01, -1.8D+00,  1.1D-01, r^2= 1.4D+00
   Bfn.  Coefficient  Atom+Function         Bfn.  Coefficient  Atom+Function  
  ----- ------------  ---------------      ----- ------------  ---------------
    53      0.411142   7 O  py               63     -0.327155   8 H  s         
    68      0.270341   9 H  s                54      0.227659   7 O  pz        
    56      0.198726   7 O  py        

 Vector   10  Occ=2.000000D+00  E=-7.191961D-01
              MO Center=  1.4D+00, -5.1D-01,  3.1D-01, r^2= 2.2D+00
   Bfn.  Coefficient  Atom+Function         Bfn.  Coefficient  Atom+Function  
  ----- ------------  ---------------      ----- ------------  ---------------
    76      0.371152  10 O  px               87      0.287513  11 H  s         
    92     -0.262196  12 H  s                78      0.192365  10 O  pz        
    79      0.178125  10 O  px               52     -0.163785   7 O  px        
    68      0.156067   9 H  s         

 Vector   11  Occ=2.000000D+00  E=-6.911917D-01
              MO Center=  4.0D-01,  1.3D+00,  7.5D-01, r^2= 1.9D+00
   Bfn.  Coefficient  Atom+Function         Bfn.  Coefficient  Atom+Function  
  ----- ------------  ---------------      ----- ------------  ---------------
     5      0.400388   1 O  py               20      0.291931   3 H  s         
    15     -0.285133   2 H  s                 8      0.188536   1 O  py        
    77     -0.177892  10 O  py                4     -0.157435   1 O  px        

 Vector   12  Occ=2.000000D+00  E=-6.438676D-01
              MO Center= -1.2D+00,  1.5D-01, -8.4D-01, r^2= 2.2D+00
   Bfn.  Coefficient  Atom+Function         Bfn.  Coefficient  Atom+Function  
  ----- ------------  ---------------      ----- ------------  ---------------
    29      0.398637   4 O  py               44     -0.287230   6 H  s         
    39      0.273778   5 H  s                54      0.195457   7 O  pz        
    32      0.186016   4 O  py        

 Vector   13  Occ=2.000000D+00  E=-6.210933D-01
              MO Center=  1.4D-01, -9.6D-01,  1.9D-03, r^2= 3.3D+00
   Bfn.  Coefficient  Atom+Function         Bfn.  Coefficient  Atom+Function  
  ----- ------------  ---------------      ----- ------------  ---------------
    52      0.270271   7 O  px               51      0.256460   7 O  s         
    54     -0.250957   7 O  pz               53      0.225719   7 O  py        
    55      0.181062   7 O  px               87      0.177114  11 H  s         
    75     -0.173280  10 O  s                68     -0.166107   9 H  s         
    57     -0.162959   7 O  pz               78      0.159722  10 O  pz        

 Vector   14  Occ=2.000000D+00  E=-5.849421D-01
              MO Center=  8.8D-01, -2.9D-01,  8.7D-02, r^2= 3.5D+00
   Bfn.  Coefficient  Atom+Function         Bfn.  Coefficient  Atom+Function  
  ----- ------------  ---------------      ----- ------------  ---------------
    77      0.380888  10 O  py               80      0.255111  10 O  py        
    75      0.241253  10 O  s                54     -0.229437   7 O  pz        
    78     -0.168238  10 O  pz               57     -0.165744   7 O  pz        
    53      0.156312   7 O  py               92     -0.156202  12 H  s         
     5      0.153711   1 O  py        

 Vector   15  Occ=2.000000D+00  E=-5.664268D-01
              MO Center= -2.1D-01,  3.1D-01,  2.7D-01, r^2= 4.0D+00
   Bfn.  Coefficient  Atom+Function         Bfn.  Coefficient  Atom+Function  
  ----- ------------  ---------------      ----- ------------  ---------------
     4      0.354933   1 O  px               52      0.300973   7 O  px        
     7      0.241258   1 O  px                3     -0.232391   1 O  s         
    55      0.232596   7 O  px               54      0.153914   7 O  pz        
    27      0.153095   4 O  s         

 Vector   16  Occ=2.000000D+00  E=-5.368670D-01
              MO Center=  2.8D-01, -4.6D-01,  1.8D-01, r^2= 3.8D+00
   Bfn.  Coefficient  Atom+Function         Bfn.  Coefficient  Atom+Function  
  ----- ------------  ---------------      ----- ------------  ---------------
    52      0.373787   7 O  px               55      0.288655   7 O  px        
     4     -0.256656   1 O  px               77      0.214877  10 O  py        
    54      0.212946   7 O  pz               78     -0.180562  10 O  pz        
     7     -0.176466   1 O  px               57      0.166404   7 O  pz        

 Vector   17  Occ=2.000000D+00  E=-5.117523D-01
              MO Center= -1.0D+00,  3.8D-01, -7.2D-01, r^2= 3.4D+00
   Bfn.  Coefficient  Atom+Function         Bfn.  Coefficient  Atom+Function  
  ----- ------------  ---------------      ----- ------------  ---------------
    28      0.375007   4 O  px               31      0.262668   4 O  px        
    27     -0.250018   4 O  s                30      0.201152   4 O  pz        
    44      0.194894   6 H  s                 6     -0.180279   1 O  pz        
    78      0.154887  10 O  pz                9     -0.152320   1 O  pz        
    29     -0.150273   4 O  py        

 Vector   18  Occ=2.000000D+00  E=-5.015021D-01
              MO Center=  1.4D+00,  1.9D-01,  3.3D-01, r^2= 2.3D+00
   Bfn.  Coefficient  Atom+Function         Bfn.  Coefficient  Atom+Function  
  ----- ------------  ---------------      ----- ------------  ---------------
    78      0.398907  10 O  pz               81      0.321158  10 O  pz        
    76     -0.299764  10 O  px               79     -0.241289  10 O  px        
     4     -0.226899   1 O  px               77      0.224314  10 O  py        
     6      0.169998   1 O  pz               80      0.164216  10 O  py        
     7     -0.160852   1 O  px        

 Vector   19  Occ=2.000000D+00  E=-4.746005D-01
              MO Center= -2.7D-01,  1.4D+00,  4.9D-01, r^2= 2.0D+00
   Bfn.  Coefficient  Atom+Function         Bfn.  Coefficient  Atom+Function  
  ----- ------------  ---------------      ----- ------------  ---------------
     6      0.548598   1 O  pz                9      0.434815   1 O  pz        
    28      0.196187   4 O  px        

 Vector   20  Occ=2.000000D+00  E=-4.372853D-01
              MO Center= -1.7D+00,  5.2D-01, -1.2D+00, r^2= 6.5D-01
   Bfn.  Coefficient  Atom+Function         Bfn.  Coefficient  Atom+Function  
  ----- ------------  ---------------      ----- ------------  ---------------
    30      0.496143   4 O  pz               33      0.398619   4 O  pz        
    28     -0.343918   4 O  px               31     -0.275095   4 O  px        
    29     -0.159268   4 O  py        

 Vector   21  Occ=0.000000D+00  E= 1.420618D-01
              MO Center= -1.1D-01, -1.7D+00,  4.0D-01, r^2= 5.6D+00
   Bfn.  Coefficient  Atom+Function         Bfn.  Coefficient  Atom+Function  
  ----- ------------  ---------------      ----- ------------  ---------------
    51      0.841914   7 O  s                64     -0.787566   8 H  s         
    69     -0.565831   9 H  s                88     -0.474640  11 H  s         
    75      0.353438  10 O  s                21     -0.229342   3 H  s         
     3      0.210369   1 O  s                56     -0.178333   7 O  py        

 Vector   22  Occ=0.000000D+00  E= 1.932379D-01
              MO Center=  1.3D+00, -4.4D-01,  7.2D-01, r^2= 8.4D+00
   Bfn.  Coefficient  Atom+Function         Bfn.  Coefficient  Atom+Function  
  ----- ------------  ---------------      ----- ------------  ---------------
    88      1.009297  11 H  s                64     -0.711671   8 H  s         
    75     -0.624335  10 O  s                21      0.620047   3 H  s         
    51      0.434338   7 O  s                 3     -0.429289   1 O  s         
    56     -0.212261   7 O  py               81     -0.211996  10 O  pz        
    79     -0.206406  10 O  px        

 Vector   23  Occ=0.000000D+00  E= 2.173008D-01
              MO Center=  8.1D-01,  7.1D-01,  9.2D-01, r^2= 8.3D+00
   Bfn.  Coefficient  Atom+Function         Bfn.  Coefficient  Atom+Function  
  ----- ------------  ---------------      ----- ------------  ---------------
    21      0.965860   3 H  s                88     -0.835185  11 H  s         
    69      0.665421   9 H  s                 3     -0.589450   1 O  s         
    64     -0.514300   8 H  s                75      0.480580  10 O  s         
     8     -0.289569   1 O  py               56     -0.201706   7 O  py        
    79      0.186308  10 O  px               57     -0.175176   7 O  pz        

 Vector   24  Occ=0.000000D+00  E= 2.333706D-01
              MO Center= -5.0D-01, -8.5D-01,  7.3D-01, r^2= 7.4D+00
   Bfn.  Coefficient  Atom+Function         Bfn.  Coefficient  Atom+Function  
  ----- ------------  ---------------      ----- ------------  ---------------
    69      1.345280   9 H  s                64     -1.035595   8 H  s         
    21     -0.702340   3 H  s                56     -0.400334   7 O  py        
     3      0.383896   1 O  s                57     -0.376194   7 O  pz        
    88      0.212092  11 H  s                 8      0.206225   1 O  py        
    45     -0.186417   6 H  s                54     -0.183171   7 O  pz        

 Vector   25  Occ=0.000000D+00  E= 3.055924D-01
              MO Center= -8.7D-01, -6.4D-02, -8.6D-01, r^2= 4.9D+00
   Bfn.  Coefficient  Atom+Function         Bfn.  Coefficient  Atom+Function  
  ----- ------------  ---------------      ----- ------------  ---------------
    45      1.184735   6 H  s                27     -0.964582   4 O  s         
    21     -0.479085   3 H  s                40      0.468817   5 H  s         
    93      0.447681  12 H  s                64     -0.346782   8 H  s         
    69     -0.327689   9 H  s                88     -0.279908  11 H  s         
    31     -0.263456   4 O  px               56     -0.230785   7 O  py        

 Vector   26  Occ=0.000000D+00  E= 3.642104D-01
              MO Center=  1.1D+00, -9.0D-01, -7.7D-04, r^2= 4.3D+00
   Bfn.  Coefficient  Atom+Function         Bfn.  Coefficient  Atom+Function  
  ----- ------------  ---------------      ----- ------------  ---------------
    93      2.000651  12 H  s                88     -0.909703  11 H  s         
    75     -0.567886  10 O  s                79      0.543413  10 O  px        
    40     -0.458215   5 H  s                27      0.407940   4 O  s         
    55     -0.316366   7 O  px               80      0.306011  10 O  py        
    64     -0.300256   8 H  s                81      0.237468  10 O  pz        

 Vector   27  Occ=0.000000D+00  E= 3.788501D-01
              MO Center= -6.2D-02,  8.3D-01, -5.8D-02, r^2= 5.8D+00
   Bfn.  Coefficient  Atom+Function         Bfn.  Coefficient  Atom+Function  
  ----- ------------  ---------------      ----- ------------  ---------------
    16      1.472735   2 H  s                45     -1.107288   6 H  s         
    40      1.050789   5 H  s                21     -0.877320   3 H  s         
     8      0.481855   1 O  py               32     -0.444750   4 O  py        
     3     -0.434059   1 O  s                88     -0.283792  11 H  s         
    80     -0.237428  10 O  py                9      0.228428   1 O  pz        

 Vector   28  Occ=0.000000D+00  E= 4.120625D-01
              MO Center= -4.1D-02,  9.1D-01, -4.4D-02, r^2= 5.5D+00
   Bfn.  Coefficient  Atom+Function         Bfn.  Coefficient  Atom+Function  
  ----- ------------  ---------------      ----- ------------  ---------------
    16      1.646730   2 H  s                40     -1.557068   5 H  s         
    45      1.004314   6 H  s                93     -0.666545  12 H  s         
    32      0.453677   4 O  py                7     -0.446673   1 O  px        
     3     -0.441894   1 O  s                21     -0.359273   3 H  s         
    80     -0.323057  10 O  py               27      0.304680   4 O  s         

 Vector   29  Occ=0.000000D+00  E= 7.052735D-01
              MO Center= -4.5D-02, -1.2D+00,  2.1D-01, r^2= 3.7D+00
   Bfn.  Coefficient  Atom+Function         Bfn.  Coefficient  Atom+Function  
  ----- ------------  ---------------      ----- ------------  ---------------
    68      0.834571   9 H  s                63     -0.742122   8 H  s         
    69     -0.633105   9 H  s                93      0.579700  12 H  s         
    64      0.465661   8 H  s                92     -0.427570  12 H  s         
    56     -0.405296   7 O  py               15      0.397725   2 H  s         
    16     -0.328166   2 H  s                57     -0.227250   7 O  pz        

 Vector   30  Occ=0.000000D+00  E= 7.487343D-01
              MO Center=  1.2D+00, -2.9D-01,  3.3D-01, r^2= 4.2D+00
   Bfn.  Coefficient  Atom+Function         Bfn.  Coefficient  Atom+Function  
  ----- ------------  ---------------      ----- ------------  ---------------
    92     -0.822667  12 H  s                93      0.798964  12 H  s         
    87      0.758068  11 H  s                88     -0.581511  11 H  s         
    63      0.421787   8 H  s                20      0.398246   3 H  s         
    79     -0.349323  10 O  px               64     -0.314840   8 H  s         
    16     -0.311690   2 H  s                39     -0.282986   5 H  s         


 center of mass
 --------------
 x =  -0.03087390 y =   0.03391073 z =  -0.03915238

 moments of inertia (a.u.)
 ------------------
         569.084298840527          39.697322836956        -160.706511055827
          39.697322836956         579.831852436520         -50.529021086311
        -160.706511055827         -50.529021086311         848.224638498991

  Mulliken analysis of the total density
  --------------------------------------

    Atom       Charge   Shell Charges
 -----------   ------   -------------------------------------------------------
    1 O    8     8.38   2.00  0.83  0.85  2.83  1.87  0.01
    2 H    1     0.80   0.62  0.09  0.09
    3 H    1     0.84   0.68  0.07  0.08
    4 O    8     8.39   2.00  0.83  0.84  2.82  1.89  0.01
    5 H    1     0.83   0.65  0.09  0.09
    6 H    1     0.84   0.67  0.09  0.09
    7 O    8     8.33   2.00  0.83  0.85  2.82  1.82  0.01
    8 H    1     0.81   0.67  0.06  0.08
    9 H    1     0.79   0.64  0.07  0.08
   10 O    8     8.36   2.00  0.83  0.84  2.83  1.84  0.01
   11 H    1     0.84   0.68  0.07  0.08
   12 H    1     0.80   0.63  0.08  0.09

       Multipole analysis of the density wrt the origin
       ------------------------------------------------

     L   x y z        total         open         nuclear
     -   - - -        -----         ----         -------
     0   0 0 0     -0.000000      0.000000     40.000000

     1   1 0 0      1.160013      0.000000     -0.000000
     1   0 1 0     -1.477005      0.000000      0.000000
     1   0 0 1      1.407948      0.000000      0.000000

     2   2 0 0    -21.483511      0.000000    237.362819
     2   1 1 0      3.096827      0.000000    -18.770884
     2   1 0 1     -0.615225      0.000000     88.844594
     2   0 2 0     -8.665753      0.000000    244.294924
     2   0 1 1      0.434106      0.000000     28.144914
     2   0 0 2    -20.696287      0.000000     83.634181


 Parallel integral file used     141 records with       0 large values

                              NWChem Gradients Module
                              -----------------------



  wavefunction    =   RHF     



                         RHF ENERGY GRADIENTS

    atom               coordinates                        gradient
                 x          y          z           x          y          z
   1 O      -0.039809   3.049260   1.650859   -0.028416  -0.005964  -0.000654
   2 H       1.518912   2.091421   1.298645    0.024235  -0.017119  -0.005312
   3 H       0.498117   4.759129   1.985114    0.005908   0.019629   0.004559
   4 O      -3.248005   0.993743  -2.336124   -0.027354   0.011164  -0.014702
   5 H      -2.201631   2.045689  -1.243606    0.016281   0.013110   0.013160
   6 H      -2.394444  -0.633008  -2.243008    0.014224  -0.025902   0.003361
   7 O      -0.608337  -3.367557  -0.063605    0.023894   0.008729  -0.038312
   8 H      -0.876930  -5.167824  -0.171867   -0.000904  -0.018609  -0.002092
   9 H      -1.528990  -2.796709   1.475706   -0.019543   0.014324   0.038339
  10 O       3.615751  -0.367464   0.393283   -0.001395   0.030293  -0.011404
  11 H       4.846608  -1.024662   1.568154    0.013026  -0.007685   0.013329
  12 H       2.381564  -1.737890   0.175555   -0.019954  -0.021970  -0.000271

                 ----------------------------------------
                 |  Time  |  1-e(secs)   |  2-e(secs)   |
                 ----------------------------------------
                 |  CPU   |       0.02   |       1.81   |
                 ----------------------------------------
                 |  WALL  |       0.02   |       1.81   |
                 ----------------------------------------

 Task  times  cpu:        5.4s     wall:        5.4s


                                NWChem Input Module
                                -------------------


 Summary of allocated global arrays
-----------------------------------
  No active global arrays



                         GA Statistics for process    0
                         ------------------------------

       create   destroy   get      put      acc     scatter   gather  read&inc
calls:  268      268     1.11e+04 5695     4684        0        0      167     
number of processes/call 0.00e+00 0.00e+00 0.00e+00 0.00e+00 0.00e+00
bytes total:             2.58e+07 1.54e+07 3.80e+06 0.00e+00 0.00e+00 1.34e+03
bytes remote:            0.00e+00 0.00e+00 0.00e+00 0.00e+00 0.00e+00 0.00e+00
Max memory consumed for GA by this process: 958464 bytes

MA_summarize_allocated_blocks: starting scan ...
MA_summarize_allocated_blocks: scan completed: 0 heap blocks, 0 stack blocks
MA usage statistics:

	allocation statistics:
					      heap	     stack
					      ----	     -----
	current number of blocks	         0	         0
	maximum number of blocks	        18	        28
	current total bytes		         0	         0
	maximum total bytes		 177770816	  26178696
	maximum total K-bytes		    177771	     26179
	maximum total M-bytes		       178	        27


                                     CITATION
                                     --------
                Please cite the following reference when publishing
                           results obtained with NWChem:

          E. Aprà, E. J. Bylaska, W. A. de Jong, N. Govind, K. Kowalski,
       T. P. Straatsma, M. Valiev, H. J. J. van Dam, Y. Alexeev, J. Anchell,
       V. Anisimov, F. W. Aquino, R. Atta-Fynn, J. Autschbach, N. P. Bauman,
     J. C. Becca, D. E. Bernholdt, K. Bhaskaran-Nair, S. Bogatko, P. Borowski,
        J. Boschen, J. Brabec, A. Bruner, E. Cauët, Y. Chen, G. N. Chuev,
      C. J. Cramer, J. Daily, M. J. O. Deegan, T. H. Dunning Jr., M. Dupuis,
   K. G. Dyall, G. I. Fann, S. A. Fischer, A. Fonari, H. Früchtl, L. Gagliardi,
      J. Garza, N. Gawande, S. Ghosh, K. Glaesemann, A. W. Götz, J. Hammond,
       V. Helms, E. D. Hermes, K. Hirao, S. Hirata, M. Jacquelin, L. Jensen,
   B. G. Johnson, H. Jónsson, R. A. Kendall, M. Klemm, R. Kobayashi, V. Konkov,
      S. Krishnamoorthy, M. Krishnan, Z. Lin, R. D. Lins, R. J. Littlefield,
      A. J. Logsdail, K. Lopata, W. Ma, A. V. Marenich, J. Martin del Campo,
   D. Mejia-Rodriguez, J. E. Moore, J. M. Mullin, T. Nakajima, D. R. Nascimento,
    J. A. Nichols, P. J. Nichols, J. Nieplocha, A. Otero-de-la-Roza, B. Palmer,
    A. Panyala, T. Pirojsirikul, B. Peng, R. Peverati, J. Pittner, L. Pollack,
   R. M. Richard, P. Sadayappan, G. C. Schatz, W. A. Shelton, D. W. Silverstein,
   D. M. A. Smith, T. A. Soares, D. Song, M. Swart, H. L. Taylor, G. S. Thomas,
            V. Tipparaju, D. G. Truhlar, K. Tsemekhman, T. Van Voorhis,
     Á. Vázquez-Mayagoitia, P. Verma, O. Villa, A. Vishnu, K. D. Vogiatzis,
        D. Wang, J. H. Weare, M. J. Williamson, T. L. Windus, K. Woliński,
        A. T. Wong, Q. Wu, C. Yang, Q. Yu, M. Zacharias, Z. Zhang, Y. Zhao,
                                and R. J. Harrison
                        "NWChem: Past, present, and future
                         J. Chem. Phys. 152, 184102 (2020)
                               doi:10.1063/5.0004997

                                      AUTHORS
                                      -------
     E. Apra, E. J. Bylaska, N. Govind, K. Kowalski, M. Valiev, W. A. de Jong,
      T. P. Straatsma, H. J. J. van Dam, D. Wang, T. L. Windus, N. P. Bauman,
       A. Panyala, J. Hammond, J. Autschbach, K. Bhaskaran-Nair, J. Brabec,
    K. Lopata, S. A. Fischer, S. Krishnamoorthy, M. Jacquelin, W. Ma, M. Klemm,
       O. Villa, Y. Chen, V. Anisimov, F. Aquino, S. Hirata, M. T. Hackler,
           Eric Hermes, L. Jensen, J. E. Moore, J. C. Becca, V. Konjkov,
            D. Mejia-Rodriguez, T. Risthaus, M. Malagoli, A. Marenich,
   A. Otero-de-la-Roza, J. Mullin, P. Nichols, R. Peverati, J. Pittner, Y. Zhao,
        P.-D. Fan, A. Fonari, M. J. Williamson, R. J. Harrison, J. R. Rehr,
      M. Dupuis, D. Silverstein, D. M. A. Smith, J. Nieplocha, V. Tipparaju,
      M. Krishnan, B. E. Van Kuiken, A. Vazquez-Mayagoitia, M. Swart, Q. Wu,
   T. Van Voorhis, A. A. Auer, M. Nooijen, L. D. Crosby, E. Brown, G. Cisneros,
     G. I. Fann, H. Fruchtl, J. Garza, K. Hirao, R. A. Kendall, J. A. Nichols,
       K. Tsemekhman, K. Wolinski, J. Anchell, D. E. Bernholdt, P. Borowski,
       T. Clark, D. Clerc, H. Dachsel, M. J. O. Deegan, K. Dyall, D. Elwood,
      E. Glendening, M. Gutowski, A. C. Hess, J. Jaffe, B. G. Johnson, J. Ju,
        R. Kobayashi, R. Kutteh, Z. Lin, R. Littlefield, X. Long, B. Meng,
      T. Nakajima, S. Niu, L. Pollack, M. Rosing, K. Glaesemann, G. Sandrone,
      M. Stave, H. Taylor, G. Thomas, J. H. van Lenthe, A. T. Wong, Z. Zhang.

 Total times  cpu:        5.4s     wall:        5.4s
