 argument  1 = nwchem/input_4_8_1.nw



============================== echo of input deck ==============================
echo
memory 1000 mb
geometry noautosym noautoz
O 0.87715956 1.70409266 0.47858616
H 1.70199937 1.19722607 0.29220265
H 1.16181787 2.60891668 0.65546661
O -0.64071556 -0.48854013 1.6410419
H -0.19915392 0.37247798 1.5285638
H -1.54433112 -0.32408724 1.298356
O 0.57630762 -1.69154092 -0.42866929
H 0.43417462 -2.64420081 -0.48595869
H 0.08911917 -1.3894609 0.38589939
O -2.88801599 -0.0663369 0.05761427
H -2.29024563 0.26724676 -0.65069518
H -3.66545029 0.50362404 0.03495814
end
basis spherical
 * library cc-pvdz
end
task scf gradient
================================================================================


                                         
                                         


             Northwest Computational Chemistry Package (NWChem) 7.0.2
             --------------------------------------------------------


                    Environmental Molecular Sciences Laboratory
                       Pacific Northwest National Laboratory
                                Richland, WA 99352

                              Copyright (c) 1994-2020
                       Pacific Northwest National Laboratory
                            Battelle Memorial Institute

             NWChem is an open-source computational chemistry package
                        distributed under the terms of the
                      Educational Community License (ECL) 2.0
             A copy of the license is included with this distribution
                              in the LICENSE.TXT file

                                  ACKNOWLEDGMENT
                                  --------------

            This software and its documentation were developed at the
            EMSL at Pacific Northwest National Laboratory, a multiprogram
            national laboratory, operated for the U.S. Department of Energy
            by Battelle under Contract Number DE-AC05-76RL01830. Support
            for this work was provided by the Department of Energy Office
            of Biological and Environmental Research, Office of Basic
            Energy Sciences, and the Office of Advanced Scientific Computing.


           Job information
           ---------------

    hostname        = pop-os
    program         = nwchem
    date            = Tue Jul  6 14:10:08 2021

    compiled        = Wed_Jan_06_19:48:08_2021
    source          = /build/nwchem-ksKH2r/nwchem-7.0.2
    nwchem branch   = 7.0.2
    nwchem revision = N/A
    ga revision     = 5.7.1
    use scalapack   = T
    input           = nwchem/input_4_8_1.nw
    prefix          = input_4_8_1.
    data base       = ./input_4_8_1.db
    status          = startup
    nproc           =        1
    time left       =     -1s



           Memory information
           ------------------

    heap     =   32767994 doubles =    250.0 Mbytes
    stack    =   32767999 doubles =    250.0 Mbytes
    global   =   65536000 doubles =    500.0 Mbytes (distinct from heap & stack)
    total    =  131071993 doubles =   1000.0 Mbytes
    verify   = yes
    hardfail = no 


           Directory information
           ---------------------

  0 permanent = .
  0 scratch   = .




                                NWChem Input Module
                                -------------------



 Scaling coordinates for geometry "geometry" by  1.889725989
 (inverse scale =  0.529177249)



                             Geometry "geometry" -> ""
                             -------------------------

 Output coordinates in angstroms (scale by  1.889725989 to convert to a.u.)

  No.       Tag          Charge          X              Y              Z
 ---- ---------------- ---------- -------------- -------------- --------------
    1 O                    8.0000     1.40001418     1.79776415     0.05240173
    2 H                    1.0000     2.22485399     1.29089756    -0.13398178
    3 H                    1.0000     1.68467249     2.70258817     0.22928218
    4 O                    8.0000    -0.11786094    -0.39486864     1.21485747
    5 H                    1.0000     0.32370070     0.46614947     1.10237937
    6 H                    1.0000    -1.02147650    -0.23041575     0.87217157
    7 O                    8.0000     1.09916224    -1.59786943    -0.85485372
    8 H                    1.0000     0.95702924    -2.55052932    -0.91214312
    9 H                    1.0000     0.61197379    -1.29578941    -0.04028504
   10 O                    8.0000    -2.36516137     0.02733459    -0.36857016
   11 H                    1.0000    -1.76739101     0.36091825    -1.07687961
   12 H                    1.0000    -3.14259567     0.59729553    -0.39122629

      Atomic Mass 
      ----------- 

      O                 15.994910
      H                  1.007825


 Effective nuclear repulsion energy (a.u.)     134.2122105600

            Nuclear Dipole moment (a.u.) 
            ----------------------------
        X                 Y               Z
 ---------------- ---------------- ----------------
    -0.0000000000     0.0000000000     0.0000000000


            XYZ format geometry
            -------------------
    12
 geometry
 O                     1.40001418     1.79776415     0.05240173
 H                     2.22485399     1.29089756    -0.13398178
 H                     1.68467249     2.70258817     0.22928218
 O                    -0.11786094    -0.39486864     1.21485747
 H                     0.32370070     0.46614947     1.10237937
 H                    -1.02147650    -0.23041575     0.87217157
 O                     1.09916224    -1.59786943    -0.85485372
 H                     0.95702924    -2.55052932    -0.91214312
 H                     0.61197379    -1.29578941    -0.04028504
 O                    -2.36516137     0.02733459    -0.36857016
 H                    -1.76739101     0.36091825    -1.07687961
 H                    -3.14259567     0.59729553    -0.39122629

 ==============================================================================
                                internuclear distances
 ------------------------------------------------------------------------------
       center one      |      center two      | atomic units |  angstroms
 ------------------------------------------------------------------------------
    2 H                |   1 O                |     1.86309  |     0.98591
    3 H                |   1 O                |     1.82339  |     0.96490
    5 H                |   4 O                |     1.84089  |     0.97416
    6 H                |   4 O                |     1.85251  |     0.98031
    8 H                |   7 O                |     1.82341  |     0.96491
    9 H                |   7 O                |     1.88227  |     0.99606
   11 H                |  10 O                |     1.86146  |     0.98504
   12 H                |  10 O                |     1.82216  |     0.96425
 ------------------------------------------------------------------------------
                         number of included internuclear distances:          8
 ==============================================================================



 ==============================================================================
                                 internuclear angles
 ------------------------------------------------------------------------------
        center 1       |       center 2       |       center 3       |  degrees
 ------------------------------------------------------------------------------
    2 H                |   1 O                |   3 H                |   105.66
    5 H                |   4 O                |   6 H                |   103.25
    8 H                |   7 O                |   9 H                |   106.02
   11 H                |  10 O                |  12 H                |   105.80
 ------------------------------------------------------------------------------
                            number of included internuclear angles:          4
 ==============================================================================





 Summary of "ao basis" -> "" (spherical)
 ------------------------------------------------------------------------------
       Tag                 Description            Shells   Functions and Types
 ---------------- ------------------------------  ------  ---------------------
 *                          cc-pvdz                   on all atoms 


                      Basis "ao basis" -> "ao basis" (spherical)
                      -----
  O (Oxygen)
  ----------
            Exponent  Coefficients 
       -------------- ---------------------------------------------------------
  1 S  1.17200000E+04  0.000710
  1 S  1.75900000E+03  0.005470
  1 S  4.00800000E+02  0.027837
  1 S  1.13700000E+02  0.104800
  1 S  3.70300000E+01  0.283062
  1 S  1.32700000E+01  0.448719
  1 S  5.02500000E+00  0.270952
  1 S  1.01300000E+00  0.015458

  2 S  1.17200000E+04 -0.000160
  2 S  1.75900000E+03 -0.001263
  2 S  4.00800000E+02 -0.006267
  2 S  1.13700000E+02 -0.025716
  2 S  3.70300000E+01 -0.070924
  2 S  1.32700000E+01 -0.165411
  2 S  5.02500000E+00 -0.116955
  2 S  1.01300000E+00  0.557368

  3 S  3.02300000E-01  1.000000

  4 P  1.77000000E+01  0.043018
  4 P  3.85400000E+00  0.228913
  4 P  1.04600000E+00  0.508728

  5 P  2.75300000E-01  1.000000

  6 D  1.18500000E+00  1.000000

  H (Hydrogen)
  ------------
            Exponent  Coefficients 
       -------------- ---------------------------------------------------------
  1 S  1.30100000E+01  0.019685
  1 S  1.96200000E+00  0.137977
  1 S  4.44600000E-01  0.478148

  2 S  1.22000000E-01  1.000000

  3 P  7.27000000E-01  1.000000



 Summary of "ao basis" -> "ao basis" (spherical)
 ------------------------------------------------------------------------------
       Tag                 Description            Shells   Functions and Types
 ---------------- ------------------------------  ------  ---------------------
 O                          cc-pvdz                  6       14   3s2p1d
 H                          cc-pvdz                  3        5   2s1p


                                 NWChem SCF Module
                                 -----------------



  ao basis        = "ao basis"
  functions       =    96
  atoms           =    12
  closed shells   =    20
  open shells     =     0
  charge          =   0.00
  wavefunction    = RHF 
  input vectors   = atomic
  output vectors  = ./input_4_8_1.movecs
  use symmetry    = F
  symmetry adapt  = F


 Summary of "ao basis" -> "ao basis" (spherical)
 ------------------------------------------------------------------------------
       Tag                 Description            Shells   Functions and Types
 ---------------- ------------------------------  ------  ---------------------
 O                          cc-pvdz                  6       14   3s2p1d
 H                          cc-pvdz                  3        5   2s1p



 Forming initial guess at       0.0s


      Superposition of Atomic Density Guess
      -------------------------------------

 Sum of atomic energies:        -303.04891642

      Non-variational initial energy
      ------------------------------

 Total energy =    -303.732814
 1-e energy   =    -682.216581
 2-e energy   =     244.271556
 HOMO         =      -0.459723
 LUMO         =       0.048575


 Starting SCF solution at       0.4s



 ----------------------------------------------
         Quadratically convergent ROHF

 Convergence threshold     :          1.000E-04
 Maximum no. of iterations :           30
 Final Fock-matrix accuracy:          1.000E-07
 ----------------------------------------------


 Integral file          = ./input_4_8_1.aoints.0
 Record size in doubles =  65536        No. of integs per rec  =  43688
 Max. records in memory =    339        Max. records in file   = 400629
 No. of bits per label  =      8        No. of bits per value  =     64


 #quartets = 4.571D+05 #integrals = 5.339D+06 #direct =  0.0% #cached =100.0%


              iter       energy          gnorm     gmax       time
             ----- ------------------- --------- --------- --------
                 1     -304.0113211988  1.52D+00  2.44D-01      1.4
                 2     -304.1198610192  3.34D-01  7.08D-02      1.5
                 3     -304.1288287833  2.77D-02  4.13D-03      1.7
                 4     -304.1288970723  5.48D-04  1.04D-04      2.0
                 5     -304.1288970957  2.72D-06  5.27D-07      2.4


       Final RHF  results 
       ------------------ 

         Total SCF energy =   -304.128897095660
      One-electron energy =   -687.818299562250
      Two-electron energy =    249.477191906583
 Nuclear repulsion energy =    134.212210560007

        Time for solution =      2.0s


             Final eigenvalues
             -----------------

              1      
    1  -20.5820
    2  -20.5782
    3  -20.5290
    4  -20.4946
    5   -1.3583
    6   -1.3522
    7   -1.3132
    8   -1.2715
    9   -0.7234
   10   -0.7161
   11   -0.6786
   12   -0.6531
   13   -0.6022
   14   -0.5821
   15   -0.5538
   16   -0.5222
   17   -0.5152
   18   -0.5064
   19   -0.4593
   20   -0.4403
   21    0.1578
   22    0.1805
   23    0.2303
   24    0.2510
   25    0.2596
   26    0.3102
   27    0.3966
   28    0.4356
   29    0.7262
   30    0.7496

                       ROHF Final Molecular Orbital Analysis
                       -------------------------------------

 Vector    5  Occ=2.000000D+00  E=-1.358306D+00
              MO Center= -2.3D+00,  1.6D-01, -4.1D-01, r^2= 9.3D-01
   Bfn.  Coefficient  Atom+Function         Bfn.  Coefficient  Atom+Function  
  ----- ------------  ---------------      ----- ------------  ---------------
    74      0.436419  10 O  s                75      0.385037  10 O  s         
    92      0.184402  12 H  s                87      0.173273  11 H  s         

 Vector    6  Occ=2.000000D+00  E=-1.352196D+00
              MO Center=  1.5D+00,  1.8D+00,  5.8D-02, r^2= 8.9D-01
   Bfn.  Coefficient  Atom+Function         Bfn.  Coefficient  Atom+Function  
  ----- ------------  ---------------      ----- ------------  ---------------
     2      0.439901   1 O  s                 3      0.387751   1 O  s         
    20      0.186985   3 H  s                15      0.174553   2 H  s         

 Vector    7  Occ=2.000000D+00  E=-1.313210D+00
              MO Center= -1.4D-01, -3.0D-01,  9.9D-01, r^2= 1.1D+00
   Bfn.  Coefficient  Atom+Function         Bfn.  Coefficient  Atom+Function  
  ----- ------------  ---------------      ----- ------------  ---------------
    26      0.423058   4 O  s                27      0.381641   4 O  s         
    39      0.172877   5 H  s                44      0.167970   6 H  s         

 Vector    8  Occ=2.000000D+00  E=-1.271476D+00
              MO Center=  9.5D-01, -1.6D+00, -6.6D-01, r^2= 9.0D-01
   Bfn.  Coefficient  Atom+Function         Bfn.  Coefficient  Atom+Function  
  ----- ------------  ---------------      ----- ------------  ---------------
    50      0.431380   7 O  s                51      0.389240   7 O  s         
    63      0.188073   8 H  s                68      0.160803   9 H  s         

 Vector    9  Occ=2.000000D+00  E=-7.233781D-01
              MO Center= -2.2D+00,  2.1D-01, -3.9D-01, r^2= 1.6D+00
   Bfn.  Coefficient  Atom+Function         Bfn.  Coefficient  Atom+Function  
  ----- ------------  ---------------      ----- ------------  ---------------
    76      0.431150  10 O  px               92     -0.324948  12 H  s         
    87      0.284573  11 H  s                79      0.205259  10 O  px        
    78     -0.165163  10 O  pz        

 Vector   10  Occ=2.000000D+00  E=-7.161043D-01
              MO Center=  1.4D+00,  1.8D+00,  5.0D-02, r^2= 1.6D+00
   Bfn.  Coefficient  Atom+Function         Bfn.  Coefficient  Atom+Function  
  ----- ------------  ---------------      ----- ------------  ---------------
     5      0.444785   1 O  py               20      0.323530   3 H  s         
    15     -0.297381   2 H  s                 8      0.210061   1 O  py        

 Vector   11  Occ=2.000000D+00  E=-6.786449D-01
              MO Center= -3.4D-01, -3.6D-02,  8.3D-01, r^2= 2.2D+00
   Bfn.  Coefficient  Atom+Function         Bfn.  Coefficient  Atom+Function  
  ----- ------------  ---------------      ----- ------------  ---------------
    28      0.387895   4 O  px               44     -0.280759   6 H  s         
    39      0.272061   5 H  s                31      0.187976   4 O  px        
    29      0.186555   4 O  py               78     -0.175823  10 O  pz        

 Vector   12  Occ=2.000000D+00  E=-6.531338D-01
              MO Center=  8.6D-01, -1.5D+00, -4.9D-01, r^2= 1.5D+00
   Bfn.  Coefficient  Atom+Function         Bfn.  Coefficient  Atom+Function  
  ----- ------------  ---------------      ----- ------------  ---------------
    53      0.354075   7 O  py               63     -0.298405   8 H  s         
    68      0.298155   9 H  s                54      0.259493   7 O  pz        
    56      0.164239   7 O  py               29     -0.153650   4 O  py        

 Vector   13  Occ=2.000000D+00  E=-6.022125D-01
              MO Center= -3.6D-01,  6.5D-01,  9.1D-02, r^2= 4.8D+00
   Bfn.  Coefficient  Atom+Function         Bfn.  Coefficient  Atom+Function  
  ----- ------------  ---------------      ----- ------------  ---------------
     4      0.327486   1 O  px               78     -0.263416  10 O  pz        
     7      0.218801   1 O  px               77      0.215423  10 O  py        
     3     -0.203129   1 O  s                75     -0.191611  10 O  s         
    27      0.184108   4 O  s                81     -0.178916  10 O  pz        
    29     -0.170486   4 O  py        

 Vector   14  Occ=2.000000D+00  E=-5.820930D-01
              MO Center= -5.4D-01,  7.3D-01, -2.6D-02, r^2= 4.9D+00
   Bfn.  Coefficient  Atom+Function         Bfn.  Coefficient  Atom+Function  
  ----- ------------  ---------------      ----- ------------  ---------------
     4      0.337398   1 O  px               77     -0.320402  10 O  py        
    75      0.242241  10 O  s                 7      0.226539   1 O  px        
     3     -0.223532   1 O  s                80     -0.215268  10 O  py        
    78      0.193220  10 O  pz               28      0.163983   4 O  px        

 Vector   15  Occ=2.000000D+00  E=-5.538399D-01
              MO Center= -2.2D-01, -2.0D-01,  4.3D-01, r^2= 3.9D+00
   Bfn.  Coefficient  Atom+Function         Bfn.  Coefficient  Atom+Function  
  ----- ------------  ---------------      ----- ------------  ---------------
    29      0.349948   4 O  py               77      0.258256  10 O  py        
    32      0.236702   4 O  py               27     -0.216156   4 O  s         
    80      0.191307  10 O  py                4      0.181594   1 O  px        
    53      0.170349   7 O  py        

 Vector   16  Occ=2.000000D+00  E=-5.221935D-01
              MO Center=  1.9D-01, -7.2D-01, -4.5D-01, r^2= 4.5D+00
   Bfn.  Coefficient  Atom+Function         Bfn.  Coefficient  Atom+Function  
  ----- ------------  ---------------      ----- ------------  ---------------
    53      0.263757   7 O  py               51      0.254065   7 O  s         
    54     -0.218926   7 O  pz               77     -0.203882  10 O  py        
    52      0.198639   7 O  px                6     -0.196171   1 O  pz        
    78     -0.193174  10 O  pz               63     -0.183199   8 H  s         
    56      0.173068   7 O  py               30      0.168390   4 O  pz        

 Vector   17  Occ=2.000000D+00  E=-5.152309D-01
              MO Center=  4.5D-01,  1.3D+00, -1.6D-02, r^2= 4.0D+00
   Bfn.  Coefficient  Atom+Function         Bfn.  Coefficient  Atom+Function  
  ----- ------------  ---------------      ----- ------------  ---------------
     6      0.522990   1 O  pz                9      0.410083   1 O  pz        
    78     -0.218014  10 O  pz               77     -0.175843  10 O  py        
    81     -0.168706  10 O  pz        

 Vector   18  Occ=2.000000D+00  E=-5.064315D-01
              MO Center= -4.5D-01, -1.8D-01,  1.3D-01, r^2= 4.6D+00
   Bfn.  Coefficient  Atom+Function         Bfn.  Coefficient  Atom+Function  
  ----- ------------  ---------------      ----- ------------  ---------------
    78      0.266041  10 O  pz               30      0.252349   4 O  pz        
     6      0.220999   1 O  pz               29     -0.207951   4 O  py        
    81      0.203743  10 O  pz               77      0.197203  10 O  py        
    33      0.189240   4 O  pz               76      0.183278  10 O  px        
     9      0.172065   1 O  pz               80      0.160528  10 O  py        

 Vector   19  Occ=2.000000D+00  E=-4.593358D-01
              MO Center=  1.7D-01, -6.7D-01,  6.9D-01, r^2= 2.0D+00
   Bfn.  Coefficient  Atom+Function         Bfn.  Coefficient  Atom+Function  
  ----- ------------  ---------------      ----- ------------  ---------------
    30      0.491735   4 O  pz               33      0.397669   4 O  pz        
    54      0.276029   7 O  pz               57      0.200105   7 O  pz        
    28     -0.176868   4 O  px               29      0.174516   4 O  py        

 Vector   20  Occ=2.000000D+00  E=-4.402993D-01
              MO Center=  1.1D+00, -1.6D+00, -8.2D-01, r^2= 7.1D-01
   Bfn.  Coefficient  Atom+Function         Bfn.  Coefficient  Atom+Function  
  ----- ------------  ---------------      ----- ------------  ---------------
    52      0.520141   7 O  px               55      0.421913   7 O  px        
    54      0.323510   7 O  pz               57      0.261905   7 O  pz        

 Vector   21  Occ=0.000000D+00  E= 1.578204D-01
              MO Center= -1.3D-01,  1.1D+00, -2.7D-01, r^2= 8.6D+00
   Bfn.  Coefficient  Atom+Function         Bfn.  Coefficient  Atom+Function  
  ----- ------------  ---------------      ----- ------------  ---------------
     3      0.667292   1 O  s                75      0.646402  10 O  s         
    21     -0.611479   3 H  s                88     -0.528337  11 H  s         
    93     -0.505969  12 H  s                16     -0.429077   2 H  s         
    64     -0.213862   8 H  s                27      0.210961   4 O  s         
    51      0.185779   7 O  s                40     -0.183333   5 H  s         

 Vector   22  Occ=0.000000D+00  E= 1.804522D-01
              MO Center= -6.2D-01,  1.4D+00, -2.6D-01, r^2= 9.7D+00
   Bfn.  Coefficient  Atom+Function         Bfn.  Coefficient  Atom+Function  
  ----- ------------  ---------------      ----- ------------  ---------------
    93      0.833353  12 H  s                75     -0.693316  10 O  s         
    21     -0.682537   3 H  s                 3      0.660978   1 O  s         
    16     -0.436025   2 H  s                88      0.329211  11 H  s         
    80     -0.201790  10 O  py                7      0.195775   1 O  px        

 Vector   23  Occ=0.000000D+00  E= 2.303123D-01
              MO Center=  5.8D-01, -8.3D-01, -5.7D-01, r^2= 1.1D+01
   Bfn.  Coefficient  Atom+Function         Bfn.  Coefficient  Atom+Function  
  ----- ------------  ---------------      ----- ------------  ---------------
    64      1.076123   8 H  s                21     -0.804208   3 H  s         
    51     -0.656860   7 O  s                93     -0.604849  12 H  s         
    16      0.514189   2 H  s                88      0.410580  11 H  s         
    56      0.328393   7 O  py                8      0.298736   1 O  py        
    79     -0.226139  10 O  px                3      0.157296   1 O  s         

 Vector   24  Occ=0.000000D+00  E= 2.510298D-01
              MO Center= -8.6D-01,  7.9D-01, -7.1D-01, r^2= 8.1D+00
   Bfn.  Coefficient  Atom+Function         Bfn.  Coefficient  Atom+Function  
  ----- ------------  ---------------      ----- ------------  ---------------
    88      1.270107  11 H  s                93     -1.039804  12 H  s         
    16     -0.854390   2 H  s                21      0.577978   3 H  s         
    79     -0.459177  10 O  px               81      0.296291  10 O  pz        
     8     -0.291673   1 O  py               76     -0.201793  10 O  px        
    45     -0.194216   6 H  s                 7      0.168746   1 O  px        

 Vector   25  Occ=0.000000D+00  E= 2.595570D-01
              MO Center=  1.1D+00,  6.3D-03, -4.9D-01, r^2= 9.7D+00
   Bfn.  Coefficient  Atom+Function         Bfn.  Coefficient  Atom+Function  
  ----- ------------  ---------------      ----- ------------  ---------------
    16      1.087408   2 H  s                64     -0.889459   8 H  s         
    21     -0.873694   3 H  s                88      0.654192  11 H  s         
    51      0.464388   7 O  s                 8      0.406417   1 O  py        
    93     -0.400860  12 H  s                56     -0.280450   7 O  py        
     7     -0.219945   1 O  px               45     -0.208570   6 H  s         

 Vector   26  Occ=0.000000D+00  E= 3.101801D-01
              MO Center= -1.6D-01,  2.1D-01,  8.4D-01, r^2= 5.0D+00
   Bfn.  Coefficient  Atom+Function         Bfn.  Coefficient  Atom+Function  
  ----- ------------  ---------------      ----- ------------  ---------------
    27      1.056818   4 O  s                40     -1.038928   5 H  s         
    45     -0.779315   6 H  s                64      0.408194   8 H  s         
    32      0.321692   4 O  py               88      0.317368  11 H  s         
    21      0.276834   3 H  s                16      0.231468   2 H  s         
    93      0.231511  12 H  s                 7     -0.174994   1 O  px        

 Vector   27  Occ=0.000000D+00  E= 3.966050D-01
              MO Center= -3.8D-01, -2.3D-02,  9.8D-01, r^2= 4.5D+00
   Bfn.  Coefficient  Atom+Function         Bfn.  Coefficient  Atom+Function  
  ----- ------------  ---------------      ----- ------------  ---------------
    40      1.737761   5 H  s                45     -1.671967   6 H  s         
    69     -0.682461   9 H  s                31     -0.560376   4 O  px        
    32     -0.390860   4 O  py               64      0.340428   8 H  s         
    93      0.260958  12 H  s                28     -0.232658   4 O  px        
    21     -0.205662   3 H  s                 8      0.199246   1 O  py        

 Vector   28  Occ=0.000000D+00  E= 4.356494D-01
              MO Center=  2.8D-01, -1.1D+00,  2.3D-01, r^2= 4.5D+00
   Bfn.  Coefficient  Atom+Function         Bfn.  Coefficient  Atom+Function  
  ----- ------------  ---------------      ----- ------------  ---------------
    69      2.161177   9 H  s                45     -1.081797   6 H  s         
    64     -0.855425   8 H  s                51     -0.653668   7 O  s         
    57     -0.466828   7 O  pz               31     -0.423560   4 O  px        
    56     -0.391068   7 O  py               16     -0.241161   2 H  s         
    55      0.231515   7 O  px               79      0.231138  10 O  px        

 Vector   29  Occ=0.000000D+00  E= 7.261749D-01
              MO Center= -6.7D-01,  2.1D-02,  4.9D-02, r^2= 5.3D+00
   Bfn.  Coefficient  Atom+Function         Bfn.  Coefficient  Atom+Function  
  ----- ------------  ---------------      ----- ------------  ---------------
    45      0.641073   6 H  s                87      0.599609  11 H  s         
    44     -0.579752   6 H  s                92     -0.576783  12 H  s         
    88     -0.449074  11 H  s                68      0.445236   9 H  s         
    15      0.420043   2 H  s                79     -0.374737  10 O  px        
    93      0.355929  12 H  s                20     -0.315225   3 H  s         

 Vector   30  Occ=0.000000D+00  E= 7.496467D-01
              MO Center=  5.2D-01,  1.0D+00,  1.5D-01, r^2= 5.6D+00
   Bfn.  Coefficient  Atom+Function         Bfn.  Coefficient  Atom+Function  
  ----- ------------  ---------------      ----- ------------  ---------------
    20      0.750795   3 H  s                15     -0.670385   2 H  s         
    40     -0.611396   5 H  s                16      0.526829   2 H  s         
    21     -0.476008   3 H  s                45      0.477781   6 H  s         
    87      0.476239  11 H  s                39      0.461741   5 H  s         
     8     -0.411259   1 O  py               88     -0.361501  11 H  s         


 center of mass
 --------------
 x =   0.00336120 y =  -0.03488086 z =   0.00912086

 moments of inertia (a.u.)
 ------------------
         552.809038470676         -49.839976545095           1.428883698600
         -49.839976545095         733.911762212427         -64.503954438027
           1.428883698600         -64.503954438027         988.637712661934

  Mulliken analysis of the total density
  --------------------------------------

    Atom       Charge   Shell Charges
 -----------   ------   -------------------------------------------------------
    1 O    8     8.33   2.00  0.83  0.84  2.82  1.83  0.01
    2 H    1     0.80   0.65  0.07  0.08
    3 H    1     0.83   0.68  0.07  0.08
    4 O    8     8.38   2.00  0.83  0.84  2.83  1.87  0.01
    5 H    1     0.82   0.65  0.09  0.08
    6 H    1     0.80   0.64  0.08  0.09
    7 O    8     8.42   2.00  0.83  0.85  2.82  1.91  0.01
    8 H    1     0.85   0.69  0.08  0.08
    9 H    1     0.79   0.61  0.09  0.09
   10 O    8     8.32   2.00  0.83  0.84  2.82  1.82  0.01
   11 H    1     0.81   0.65  0.08  0.08
   12 H    1     0.83   0.68  0.07  0.08

       Multipole analysis of the density wrt the origin
       ------------------------------------------------

     L   x y z        total         open         nuclear
     -   - - -        -----         ----         -------
     0   0 0 0     -0.000000      0.000000     40.000000

     1   1 0 0     -0.330610      0.000000     -0.000000
     1   0 1 0      1.498096      0.000000      0.000000
     1   0 0 1     -0.262246      0.000000      0.000000

     2   2 0 0    -11.249451      0.000000    333.662048
     2   1 1 0      1.391684      0.000000     28.576231
     2   1 0 1      2.832571      0.000000      2.455168
     2   0 2 0    -11.980029      0.000000    233.713906
     2   0 1 1      0.469463      0.000000     36.706433
     2   0 0 2    -21.523373      0.000000     81.972882


 Parallel integral file used     123 records with       0 large values

                              NWChem Gradients Module
                              -----------------------



  wavefunction    =   RHF     



                         RHF ENERGY GRADIENTS

    atom               coordinates                        gradient
                 x          y          z           x          y          z
   1 O       2.645643   3.397282   0.099025   -0.035351   0.000358   0.002294
   2 H       4.204364   2.439443  -0.253189    0.032396  -0.019699  -0.005708
   3 H       3.183569   5.107151   0.433281    0.003630   0.019681   0.003698
   4 O      -0.222725  -0.746194   2.295748    0.018320  -0.030069   0.004209
   5 H       0.611706   0.880895   2.083195    0.009301   0.021379  -0.001906
   6 H      -1.930311  -0.435423   1.648165   -0.025263   0.007002  -0.011954
   7 O       2.077115  -3.019535  -1.615439    0.017161   0.009851  -0.021085
   8 H       1.808523  -4.819802  -1.723701   -0.002238  -0.021471  -0.003423
   9 H       1.156463  -2.448687  -0.076128   -0.019772   0.013901   0.030392
  10 O      -4.469507   0.051655  -0.696497   -0.005575  -0.023999   0.027956
  11 H      -3.339885   0.682037  -2.035007    0.023876   0.012600  -0.025234
  12 H      -5.938645   1.128725  -0.739310   -0.016485   0.010466   0.000761

                 ----------------------------------------
                 |  Time  |  1-e(secs)   |  2-e(secs)   |
                 ----------------------------------------
                 |  CPU   |       0.01   |       1.22   |
                 ----------------------------------------
                 |  WALL  |       0.01   |       1.22   |
                 ----------------------------------------

 Task  times  cpu:        3.6s     wall:        3.7s


                                NWChem Input Module
                                -------------------


 Summary of allocated global arrays
-----------------------------------
  No active global arrays



                         GA Statistics for process    0
                         ------------------------------

       create   destroy   get      put      acc     scatter   gather  read&inc
calls:  268      268     1.11e+04 5681     4684        0        0      166     
number of processes/call 0.00e+00 0.00e+00 0.00e+00 0.00e+00 0.00e+00
bytes total:             2.58e+07 1.54e+07 3.80e+06 0.00e+00 0.00e+00 1.33e+03
bytes remote:            0.00e+00 0.00e+00 0.00e+00 0.00e+00 0.00e+00 0.00e+00
Max memory consumed for GA by this process: 958464 bytes

MA_summarize_allocated_blocks: starting scan ...
MA_summarize_allocated_blocks: scan completed: 0 heap blocks, 0 stack blocks
MA usage statistics:

	allocation statistics:
					      heap	     stack
					      ----	     -----
	current number of blocks	         0	         0
	maximum number of blocks	        18	        28
	current total bytes		         0	         0
	maximum total bytes		 177770864	  26178712
	maximum total K-bytes		    177771	     26179
	maximum total M-bytes		       178	        27


                                     CITATION
                                     --------
                Please cite the following reference when publishing
                           results obtained with NWChem:

          E. Aprà, E. J. Bylaska, W. A. de Jong, N. Govind, K. Kowalski,
       T. P. Straatsma, M. Valiev, H. J. J. van Dam, Y. Alexeev, J. Anchell,
       V. Anisimov, F. W. Aquino, R. Atta-Fynn, J. Autschbach, N. P. Bauman,
     J. C. Becca, D. E. Bernholdt, K. Bhaskaran-Nair, S. Bogatko, P. Borowski,
        J. Boschen, J. Brabec, A. Bruner, E. Cauët, Y. Chen, G. N. Chuev,
      C. J. Cramer, J. Daily, M. J. O. Deegan, T. H. Dunning Jr., M. Dupuis,
   K. G. Dyall, G. I. Fann, S. A. Fischer, A. Fonari, H. Früchtl, L. Gagliardi,
      J. Garza, N. Gawande, S. Ghosh, K. Glaesemann, A. W. Götz, J. Hammond,
       V. Helms, E. D. Hermes, K. Hirao, S. Hirata, M. Jacquelin, L. Jensen,
   B. G. Johnson, H. Jónsson, R. A. Kendall, M. Klemm, R. Kobayashi, V. Konkov,
      S. Krishnamoorthy, M. Krishnan, Z. Lin, R. D. Lins, R. J. Littlefield,
      A. J. Logsdail, K. Lopata, W. Ma, A. V. Marenich, J. Martin del Campo,
   D. Mejia-Rodriguez, J. E. Moore, J. M. Mullin, T. Nakajima, D. R. Nascimento,
    J. A. Nichols, P. J. Nichols, J. Nieplocha, A. Otero-de-la-Roza, B. Palmer,
    A. Panyala, T. Pirojsirikul, B. Peng, R. Peverati, J. Pittner, L. Pollack,
   R. M. Richard, P. Sadayappan, G. C. Schatz, W. A. Shelton, D. W. Silverstein,
   D. M. A. Smith, T. A. Soares, D. Song, M. Swart, H. L. Taylor, G. S. Thomas,
            V. Tipparaju, D. G. Truhlar, K. Tsemekhman, T. Van Voorhis,
     Á. Vázquez-Mayagoitia, P. Verma, O. Villa, A. Vishnu, K. D. Vogiatzis,
        D. Wang, J. H. Weare, M. J. Williamson, T. L. Windus, K. Woliński,
        A. T. Wong, Q. Wu, C. Yang, Q. Yu, M. Zacharias, Z. Zhang, Y. Zhao,
                                and R. J. Harrison
                        "NWChem: Past, present, and future
                         J. Chem. Phys. 152, 184102 (2020)
                               doi:10.1063/5.0004997

                                      AUTHORS
                                      -------
     E. Apra, E. J. Bylaska, N. Govind, K. Kowalski, M. Valiev, W. A. de Jong,
      T. P. Straatsma, H. J. J. van Dam, D. Wang, T. L. Windus, N. P. Bauman,
       A. Panyala, J. Hammond, J. Autschbach, K. Bhaskaran-Nair, J. Brabec,
    K. Lopata, S. A. Fischer, S. Krishnamoorthy, M. Jacquelin, W. Ma, M. Klemm,
       O. Villa, Y. Chen, V. Anisimov, F. Aquino, S. Hirata, M. T. Hackler,
           Eric Hermes, L. Jensen, J. E. Moore, J. C. Becca, V. Konjkov,
            D. Mejia-Rodriguez, T. Risthaus, M. Malagoli, A. Marenich,
   A. Otero-de-la-Roza, J. Mullin, P. Nichols, R. Peverati, J. Pittner, Y. Zhao,
        P.-D. Fan, A. Fonari, M. J. Williamson, R. J. Harrison, J. R. Rehr,
      M. Dupuis, D. Silverstein, D. M. A. Smith, J. Nieplocha, V. Tipparaju,
      M. Krishnan, B. E. Van Kuiken, A. Vazquez-Mayagoitia, M. Swart, Q. Wu,
   T. Van Voorhis, A. A. Auer, M. Nooijen, L. D. Crosby, E. Brown, G. Cisneros,
     G. I. Fann, H. Fruchtl, J. Garza, K. Hirao, R. A. Kendall, J. A. Nichols,
       K. Tsemekhman, K. Wolinski, J. Anchell, D. E. Bernholdt, P. Borowski,
       T. Clark, D. Clerc, H. Dachsel, M. J. O. Deegan, K. Dyall, D. Elwood,
      E. Glendening, M. Gutowski, A. C. Hess, J. Jaffe, B. G. Johnson, J. Ju,
        R. Kobayashi, R. Kutteh, Z. Lin, R. Littlefield, X. Long, B. Meng,
      T. Nakajima, S. Niu, L. Pollack, M. Rosing, K. Glaesemann, G. Sandrone,
      M. Stave, H. Taylor, G. Thomas, J. H. van Lenthe, A. T. Wong, Z. Zhang.

 Total times  cpu:        3.6s     wall:        3.7s
