 argument  1 = nwchem/input_3_13_1.nw



============================== echo of input deck ==============================
echo
memory 1000 mb
geometry noautosym noautoz
O -0.82054445 0.61636011 -1.6312343
H -0.26682713 1.17302621 -1.05309865
H -0.36885969 -0.24447946 -1.58195952
O -0.64071556 -0.48854013 1.6410419
H -0.19915392 0.37247798 1.5285638
H -1.54433112 -0.32408724 1.298356
O -2.88801599 -0.0663369 0.05761427
H -2.29024563 0.26724676 -0.65069518
H -3.66545029 0.50362404 0.03495814
end
basis spherical
 * library cc-pvdz
end
task scf gradient
================================================================================


                                         
                                         


             Northwest Computational Chemistry Package (NWChem) 7.0.2
             --------------------------------------------------------


                    Environmental Molecular Sciences Laboratory
                       Pacific Northwest National Laboratory
                                Richland, WA 99352

                              Copyright (c) 1994-2020
                       Pacific Northwest National Laboratory
                            Battelle Memorial Institute

             NWChem is an open-source computational chemistry package
                        distributed under the terms of the
                      Educational Community License (ECL) 2.0
             A copy of the license is included with this distribution
                              in the LICENSE.TXT file

                                  ACKNOWLEDGMENT
                                  --------------

            This software and its documentation were developed at the
            EMSL at Pacific Northwest National Laboratory, a multiprogram
            national laboratory, operated for the U.S. Department of Energy
            by Battelle under Contract Number DE-AC05-76RL01830. Support
            for this work was provided by the Department of Energy Office
            of Biological and Environmental Research, Office of Basic
            Energy Sciences, and the Office of Advanced Scientific Computing.


           Job information
           ---------------

    hostname        = pop-os
    program         = nwchem
    date            = Tue Jul  6 14:10:18 2021

    compiled        = Wed_Jan_06_19:48:08_2021
    source          = /build/nwchem-ksKH2r/nwchem-7.0.2
    nwchem branch   = 7.0.2
    nwchem revision = N/A
    ga revision     = 5.7.1
    use scalapack   = T
    input           = nwchem/input_3_13_1.nw
    prefix          = input_3_13_1.
    data base       = ./input_3_13_1.db
    status          = startup
    nproc           =        1
    time left       =     -1s



           Memory information
           ------------------

    heap     =   32767996 doubles =    250.0 Mbytes
    stack    =   32768001 doubles =    250.0 Mbytes
    global   =   65536000 doubles =    500.0 Mbytes (distinct from heap & stack)
    total    =  131071997 doubles =   1000.0 Mbytes
    verify   = yes
    hardfail = no 


           Directory information
           ---------------------

  0 permanent = .
  0 scratch   = .




                                NWChem Input Module
                                -------------------



 Scaling coordinates for geometry "geometry" by  1.889725989
 (inverse scale =  0.529177249)



                             Geometry "geometry" -> ""
                             -------------------------

 Output coordinates in angstroms (scale by  1.889725989 to convert to a.u.)

  No.       Tag          Charge          X              Y              Z
 ---- ---------------- ---------- -------------- -------------- --------------
    1 O                    8.0000     0.61709141     0.54170435    -1.63508429
    2 H                    1.0000     1.17080873     1.09837045    -1.05694864
    3 H                    1.0000     1.06877617    -0.31913522    -1.58580951
    4 O                    8.0000     0.79692030    -0.56319589     1.63719192
    5 H                    1.0000     1.23848194     0.29782222     1.52471382
    6 H                    1.0000    -0.10669526    -0.39874300     1.29450602
    7 O                    8.0000    -1.45038013    -0.14099266     0.05376429
    8 H                    1.0000    -0.85260977     0.19259100    -0.65454517
    9 H                    1.0000    -2.22781443     0.42896828     0.03110816

      Atomic Mass 
      ----------- 

      O                 15.994910
      H                  1.007825


 Effective nuclear repulsion energy (a.u.)      81.5501555101

            Nuclear Dipole moment (a.u.) 
            ----------------------------
        X                 Y               Z
 ---------------- ---------------- ----------------
    -0.0000000000    -0.0000000000    -0.0000000000


            XYZ format geometry
            -------------------
     9
 geometry
 O                     0.61709141     0.54170435    -1.63508429
 H                     1.17080873     1.09837045    -1.05694864
 H                     1.06877617    -0.31913522    -1.58580951
 O                     0.79692030    -0.56319589     1.63719192
 H                     1.23848194     0.29782222     1.52471382
 H                    -0.10669526    -0.39874300     1.29450602
 O                    -1.45038013    -0.14099266     0.05376429
 H                    -0.85260977     0.19259100    -0.65454517
 H                    -2.22781443     0.42896828     0.03110816

 ==============================================================================
                                internuclear distances
 ------------------------------------------------------------------------------
       center one      |      center two      | atomic units |  angstroms
 ------------------------------------------------------------------------------
    2 H                |   1 O                |     1.84258  |     0.97505
    3 H                |   1 O                |     1.83944  |     0.97339
    5 H                |   4 O                |     1.84089  |     0.97416
    6 H                |   4 O                |     1.85251  |     0.98031
    8 H                |   7 O                |     1.86146  |     0.98504
    9 H                |   7 O                |     1.82216  |     0.96425
 ------------------------------------------------------------------------------
                         number of included internuclear distances:          6
 ==============================================================================



 ==============================================================================
                                 internuclear angles
 ------------------------------------------------------------------------------
        center 1       |       center 2       |       center 3       |  degrees
 ------------------------------------------------------------------------------
    2 H                |   1 O                |   3 H                |   102.20
    5 H                |   4 O                |   6 H                |   103.25
    8 H                |   7 O                |   9 H                |   105.80
 ------------------------------------------------------------------------------
                            number of included internuclear angles:          3
 ==============================================================================





 Summary of "ao basis" -> "" (spherical)
 ------------------------------------------------------------------------------
       Tag                 Description            Shells   Functions and Types
 ---------------- ------------------------------  ------  ---------------------
 *                          cc-pvdz                   on all atoms 


                      Basis "ao basis" -> "ao basis" (spherical)
                      -----
  O (Oxygen)
  ----------
            Exponent  Coefficients 
       -------------- ---------------------------------------------------------
  1 S  1.17200000E+04  0.000710
  1 S  1.75900000E+03  0.005470
  1 S  4.00800000E+02  0.027837
  1 S  1.13700000E+02  0.104800
  1 S  3.70300000E+01  0.283062
  1 S  1.32700000E+01  0.448719
  1 S  5.02500000E+00  0.270952
  1 S  1.01300000E+00  0.015458

  2 S  1.17200000E+04 -0.000160
  2 S  1.75900000E+03 -0.001263
  2 S  4.00800000E+02 -0.006267
  2 S  1.13700000E+02 -0.025716
  2 S  3.70300000E+01 -0.070924
  2 S  1.32700000E+01 -0.165411
  2 S  5.02500000E+00 -0.116955
  2 S  1.01300000E+00  0.557368

  3 S  3.02300000E-01  1.000000

  4 P  1.77000000E+01  0.043018
  4 P  3.85400000E+00  0.228913
  4 P  1.04600000E+00  0.508728

  5 P  2.75300000E-01  1.000000

  6 D  1.18500000E+00  1.000000

  H (Hydrogen)
  ------------
            Exponent  Coefficients 
       -------------- ---------------------------------------------------------
  1 S  1.30100000E+01  0.019685
  1 S  1.96200000E+00  0.137977
  1 S  4.44600000E-01  0.478148

  2 S  1.22000000E-01  1.000000

  3 P  7.27000000E-01  1.000000



 Summary of "ao basis" -> "ao basis" (spherical)
 ------------------------------------------------------------------------------
       Tag                 Description            Shells   Functions and Types
 ---------------- ------------------------------  ------  ---------------------
 O                          cc-pvdz                  6       14   3s2p1d
 H                          cc-pvdz                  3        5   2s1p


                                 NWChem SCF Module
                                 -----------------



  ao basis        = "ao basis"
  functions       =    72
  atoms           =     9
  closed shells   =    15
  open shells     =     0
  charge          =   0.00
  wavefunction    = RHF 
  input vectors   = atomic
  output vectors  = ./input_3_13_1.movecs
  use symmetry    = F
  symmetry adapt  = F


 Summary of "ao basis" -> "ao basis" (spherical)
 ------------------------------------------------------------------------------
       Tag                 Description            Shells   Functions and Types
 ---------------- ------------------------------  ------  ---------------------
 O                          cc-pvdz                  6       14   3s2p1d
 H                          cc-pvdz                  3        5   2s1p



 Forming initial guess at       0.1s


      Superposition of Atomic Density Guess
      -------------------------------------

 Sum of atomic energies:        -227.28668731

      Non-variational initial energy
      ------------------------------

 Total energy =    -227.806136
 1-e energy   =    -473.430730
 2-e energy   =     164.074438
 HOMO         =      -0.460803
 LUMO         =       0.047679


 Starting SCF solution at       0.3s



 ----------------------------------------------
         Quadratically convergent ROHF

 Convergence threshold     :          1.000E-04
 Maximum no. of iterations :           30
 Final Fock-matrix accuracy:          1.000E-07
 ----------------------------------------------


 Integral file          = ./input_3_13_1.aoints.0
 Record size in doubles =  65536        No. of integs per rec  =  43688
 Max. records in memory =    110        Max. records in file   = 400572
 No. of bits per label  =      8        No. of bits per value  =     64


 #quartets = 1.909D+05 #integrals = 2.478D+06 #direct =  0.0% #cached =100.0%


              iter       energy          gnorm     gmax       time
             ----- ------------------- --------- --------- --------
                 1     -228.0015237170  1.34D+00  2.61D-01      0.9
                 2     -228.0868954495  2.93D-01  7.61D-02      1.0
                 3     -228.0938425244  2.47D-02  3.80D-03      1.2
                 4     -228.0938973205  4.88D-04  1.04D-04      1.4
                 5     -228.0938973383  2.45D-06  5.92D-07      1.6


       Final RHF  results 
       ------------------ 

         Total SCF energy =   -228.093897338329
      One-electron energy =   -477.249433900455
      Two-electron energy =    167.605381052053
 Nuclear repulsion energy =     81.550155510073

        Time for solution =      1.3s


             Final eigenvalues
             -----------------

              1      
    1  -20.6008
    2  -20.5522
    3  -20.5252
    4   -1.3785
    5   -1.3337
    6   -1.3015
    7   -0.7306
    8   -0.7100
    9   -0.6685
   10   -0.6176
   11   -0.5743
   12   -0.5463
   13   -0.5236
   14   -0.4901
   15   -0.4665
   16    0.1424
   17    0.2083
   18    0.2194
   19    0.2631
   20    0.3631
   21    0.3874
   22    0.7259
   23    0.7496
   24    0.8030
   25    0.8122

                       ROHF Final Molecular Orbital Analysis
                       -------------------------------------

 Vector    4  Occ=2.000000D+00  E=-1.378526D+00
              MO Center=  6.8D-01,  4.8D-01, -1.5D+00, r^2= 7.2D-01
   Bfn.  Coefficient  Atom+Function         Bfn.  Coefficient  Atom+Function  
  ----- ------------  ---------------      ----- ------------  ---------------
     2      0.438275  1 O  s                  3      0.385052  1 O  s          
    15      0.181478  2 H  s                 20      0.180896  3 H  s          

 Vector    5  Occ=2.000000D+00  E=-1.333703D+00
              MO Center= -1.3D+00, -1.9D-02, -7.1D-03, r^2= 1.1D+00
   Bfn.  Coefficient  Atom+Function         Bfn.  Coefficient  Atom+Function  
  ----- ------------  ---------------      ----- ------------  ---------------
    50      0.426332  7 O  s                 51      0.381682  7 O  s          
    68      0.181179  9 H  s                 63      0.164888  8 H  s          

 Vector    6  Occ=2.000000D+00  E=-1.301454D+00
              MO Center=  6.4D-01, -4.0D-01,  1.5D+00, r^2= 8.7D-01
   Bfn.  Coefficient  Atom+Function         Bfn.  Coefficient  Atom+Function  
  ----- ------------  ---------------      ----- ------------  ---------------
    26      0.433354  4 O  s                 27      0.384964  4 O  s          
    39      0.185992  5 H  s                 44      0.172442  6 H  s          

 Vector    7  Occ=2.000000D+00  E=-7.305721D-01
              MO Center=  7.7D-01,  4.9D-01, -1.5D+00, r^2= 8.7D-01
   Bfn.  Coefficient  Atom+Function         Bfn.  Coefficient  Atom+Function  
  ----- ------------  ---------------      ----- ------------  ---------------
     5      0.460726  1 O  py                15      0.320665  2 H  s          
    20     -0.309583  3 H  s                  8      0.222707  1 O  py         
     6      0.166164  1 O  pz         

 Vector    8  Occ=2.000000D+00  E=-7.099522D-01
              MO Center= -1.2D+00,  4.8D-02, -1.4D-01, r^2= 1.6D+00
   Bfn.  Coefficient  Atom+Function         Bfn.  Coefficient  Atom+Function  
  ----- ------------  ---------------      ----- ------------  ---------------
    52      0.412050  7 O  px                68     -0.306971  9 H  s          
    63      0.283880  8 H  s                 55      0.196341  7 O  px         
    54     -0.177823  7 O  pz         

 Vector    9  Occ=2.000000D+00  E=-6.685114D-01
              MO Center=  4.6D-01, -3.2D-01,  1.3D+00, r^2= 1.7D+00
   Bfn.  Coefficient  Atom+Function         Bfn.  Coefficient  Atom+Function  
  ----- ------------  ---------------      ----- ------------  ---------------
    28      0.401799  4 O  px                44     -0.297338  6 H  s          
    39      0.295629  5 H  s                 29      0.189057  4 O  py         
    31      0.189599  4 O  px                54     -0.166508  7 O  pz         

 Vector   10  Occ=2.000000D+00  E=-6.175652D-01
              MO Center=  4.0D-01,  4.6D-01, -1.4D+00, r^2= 1.7D+00
   Bfn.  Coefficient  Atom+Function         Bfn.  Coefficient  Atom+Function  
  ----- ------------  ---------------      ----- ------------  ---------------
     4      0.420360  1 O  px                 3     -0.317110  1 O  s          
     7      0.269674  1 O  px                 6      0.254973  1 O  pz         
    15      0.196367  2 H  s                 20      0.190770  3 H  s          
     9      0.171216  1 O  pz         

 Vector   11  Occ=2.000000D+00  E=-5.742985D-01
              MO Center= -6.1D-01, -7.1D-02, -7.9D-03, r^2= 3.0D+00
   Bfn.  Coefficient  Atom+Function         Bfn.  Coefficient  Atom+Function  
  ----- ------------  ---------------      ----- ------------  ---------------
    53      0.320567  7 O  py                54     -0.266483  7 O  pz         
    51     -0.265048  7 O  s                  6      0.252992  1 O  pz         
    56      0.212252  7 O  py                29     -0.203699  4 O  py         
     9      0.187610  1 O  pz                57     -0.184083  7 O  pz         
    68      0.177590  9 H  s                 39     -0.154912  5 H  s          

 Vector   12  Occ=2.000000D+00  E=-5.463483D-01
              MO Center=  4.1D-01, -3.0D-01,  7.8D-01, r^2= 3.2D+00
   Bfn.  Coefficient  Atom+Function         Bfn.  Coefficient  Atom+Function  
  ----- ------------  ---------------      ----- ------------  ---------------
    29      0.364184  4 O  py                27     -0.270886  4 O  s          
    32      0.245834  4 O  py                 6      0.203958  1 O  pz         
    53      0.197045  7 O  py                39      0.168777  5 H  s          
    28     -0.167286  4 O  px                30     -0.167080  4 O  pz         
     9      0.162251  1 O  pz                 4     -0.161172  1 O  px         

 Vector   13  Occ=2.000000D+00  E=-5.236075D-01
              MO Center=  9.3D-02,  2.1D-01, -8.2D-01, r^2= 3.0D+00
   Bfn.  Coefficient  Atom+Function         Bfn.  Coefficient  Atom+Function  
  ----- ------------  ---------------      ----- ------------  ---------------
     6      0.386298  1 O  pz                 4     -0.305937  1 O  px         
     9      0.305585  1 O  pz                53     -0.246695  7 O  py         
     7     -0.232249  1 O  px                56     -0.180822  7 O  py         
    54      0.168325  7 O  pz         

 Vector   14  Occ=2.000000D+00  E=-4.900830D-01
              MO Center= -1.1D+00, -1.9D-01,  2.8D-01, r^2= 1.6D+00
   Bfn.  Coefficient  Atom+Function         Bfn.  Coefficient  Atom+Function  
  ----- ------------  ---------------      ----- ------------  ---------------
    54      0.394061  7 O  pz                53      0.338543  7 O  py         
    57      0.305584  7 O  pz                56      0.276701  7 O  py         
    52      0.263995  7 O  px                55      0.210172  7 O  px         
    28      0.166652  4 O  px                29     -0.155815  4 O  py         

 Vector   15  Occ=2.000000D+00  E=-4.665481D-01
              MO Center=  7.7D-01, -5.3D-01,  1.6D+00, r^2= 7.3D-01
   Bfn.  Coefficient  Atom+Function         Bfn.  Coefficient  Atom+Function  
  ----- ------------  ---------------      ----- ------------  ---------------
    30      0.580037  4 O  pz                33      0.464478  4 O  pz         
    28     -0.166097  4 O  px                29      0.155232  4 O  py         

 Vector   16  Occ=0.000000D+00  E= 1.424127D-01
              MO Center=  9.2D-01,  6.1D-01, -4.1D-01, r^2= 4.6D+00
   Bfn.  Coefficient  Atom+Function         Bfn.  Coefficient  Atom+Function  
  ----- ------------  ---------------      ----- ------------  ---------------
    16     -0.783796  2 H  s                  3      0.736400  1 O  s          
    40     -0.548773  5 H  s                 21     -0.442922  3 H  s          
    69     -0.389537  9 H  s                 27      0.340748  4 O  s          
    51      0.265850  7 O  s                  7      0.221965  1 O  px         
     9      0.177613  1 O  pz                32      0.175946  4 O  py         

 Vector   17  Occ=0.000000D+00  E= 2.082767D-01
              MO Center= -1.8D+00,  6.1D-01,  8.4D-03, r^2= 4.3D+00
   Bfn.  Coefficient  Atom+Function         Bfn.  Coefficient  Atom+Function  
  ----- ------------  ---------------      ----- ------------  ---------------
    69      1.299280  9 H  s                 51     -0.818616  7 O  s          
    16     -0.497196  2 H  s                 55      0.309232  7 O  px         
    40     -0.284100  5 H  s                 56     -0.241333  7 O  py         
     3      0.215349  1 O  s                 45      0.190686  6 H  s          

 Vector   18  Occ=0.000000D+00  E= 2.194191D-01
              MO Center=  1.1D+00, -2.6D-01, -8.5D-01, r^2= 4.7D+00
   Bfn.  Coefficient  Atom+Function         Bfn.  Coefficient  Atom+Function  
  ----- ------------  ---------------      ----- ------------  ---------------
    21      1.410794  3 H  s                 40     -0.693867  5 H  s          
    16     -0.542253  2 H  s                  3     -0.505465  1 O  s          
     8      0.474845  1 O  py                27      0.392057  4 O  s          
    69     -0.229750  9 H  s                  5      0.212228  1 O  py         
    32      0.210629  4 O  py         

 Vector   19  Occ=0.000000D+00  E= 2.631393D-01
              MO Center=  1.2D+00,  7.3D-01,  3.4D-01, r^2= 5.0D+00
   Bfn.  Coefficient  Atom+Function         Bfn.  Coefficient  Atom+Function  
  ----- ------------  ---------------      ----- ------------  ---------------
    16      1.249856  2 H  s                 40     -1.091967  5 H  s          
    27      0.751508  4 O  s                 21     -0.647898  3 H  s          
     8     -0.372023  1 O  py                 3     -0.364071  1 O  s          
    32      0.306639  4 O  py                 9     -0.199572  1 O  pz         
    45     -0.194629  6 H  s                 69      0.183877  9 H  s          

 Vector   20  Occ=0.000000D+00  E= 3.630544D-01
              MO Center= -6.9D-01,  3.3D-02,  1.2D-01, r^2= 4.7D+00
   Bfn.  Coefficient  Atom+Function         Bfn.  Coefficient  Atom+Function  
  ----- ------------  ---------------      ----- ------------  ---------------
    64      1.506384  8 H  s                 45      1.110576  6 H  s          
    69     -0.980741  9 H  s                 40     -0.605092  5 H  s          
    55     -0.599917  7 O  px                51     -0.464424  7 O  s          
    21     -0.411740  3 H  s                 31      0.379888  4 O  px         
    27     -0.302446  4 O  s                  7      0.259415  1 O  px         

 Vector   21  Occ=0.000000D+00  E= 3.874278D-01
              MO Center= -4.8D-01, -6.1D-02,  3.9D-01, r^2= 4.8D+00
   Bfn.  Coefficient  Atom+Function         Bfn.  Coefficient  Atom+Function  
  ----- ------------  ---------------      ----- ------------  ---------------
    45      1.741973  6 H  s                 64     -1.605576  8 H  s          
    40     -0.799793  5 H  s                 31      0.498346  4 O  px         
    27     -0.493753  4 O  s                 57     -0.478197  7 O  pz         
    16      0.435816  2 H  s                 51      0.357818  7 O  s          
    69      0.296108  9 H  s                  7     -0.258470  1 O  px         

 Vector   22  Occ=0.000000D+00  E= 7.258544D-01
              MO Center=  6.4D-01,  3.9D-01, -1.2D+00, r^2= 2.8D+00
   Bfn.  Coefficient  Atom+Function         Bfn.  Coefficient  Atom+Function  
  ----- ------------  ---------------      ----- ------------  ---------------
    15      0.889352  2 H  s                 20     -0.882357  3 H  s          
    16     -0.709492  2 H  s                 21      0.629786  3 H  s          
     8     -0.401573  1 O  py                68      0.362891  9 H  s          
    45     -0.255150  6 H  s                  5     -0.207994  1 O  py         
    64      0.206991  8 H  s                 69     -0.206471  9 H  s          

 Vector   23  Occ=0.000000D+00  E= 7.495613D-01
              MO Center= -3.4D-01, -9.9D-02,  4.0D-01, r^2= 3.6D+00
   Bfn.  Coefficient  Atom+Function         Bfn.  Coefficient  Atom+Function  
  ----- ------------  ---------------      ----- ------------  ---------------
    64     -0.898159  8 H  s                 45      0.841451  6 H  s          
    63      0.810937  8 H  s                 44     -0.668654  6 H  s          
    39      0.470422  5 H  s                 68     -0.393299  9 H  s          
    40     -0.388865  5 H  s                 20     -0.384536  3 H  s          
    69      0.356749  9 H  s                 21      0.327286  3 H  s          

 Vector   24  Occ=0.000000D+00  E= 8.030053D-01
              MO Center=  1.3D-01,  1.5D-01,  1.9D-02, r^2= 4.0D+00
   Bfn.  Coefficient  Atom+Function         Bfn.  Coefficient  Atom+Function  
  ----- ------------  ---------------      ----- ------------  ---------------
    64      0.948224  8 H  s                 63     -0.705313  8 H  s          
    39      0.691506  5 H  s                 15      0.478331  2 H  s          
    40     -0.462064  5 H  s                 44     -0.429511  6 H  s          
    20      0.371675  3 H  s                 51     -0.328396  7 O  s          
    16     -0.296746  2 H  s                 21     -0.282279  3 H  s          

 Vector   25  Occ=0.000000D+00  E= 8.121966D-01
              MO Center= -8.3D-01,  3.0D-01,  1.5D-01, r^2= 4.6D+00
   Bfn.  Coefficient  Atom+Function         Bfn.  Coefficient  Atom+Function  
  ----- ------------  ---------------      ----- ------------  ---------------
    68      0.960363  9 H  s                 69     -0.701963  9 H  s          
    15     -0.508622  2 H  s                 40     -0.470896  5 H  s          
    39      0.458248  5 H  s                 16      0.446252  2 H  s          
    44     -0.414957  6 H  s                 45      0.305501  6 H  s          
    55      0.207718  7 O  px                20     -0.202171  3 H  s          


 center of mass
 --------------
 x =  -0.01008961 y =  -0.04507764 z =   0.01550042

 moments of inertia (a.u.)
 ------------------
         377.275219715924          -5.964255860564          -9.949824997610
          -5.964255860564         548.235750158527         106.640080026056
          -9.949824997610         106.640080026056         255.560541580964

  Mulliken analysis of the total density
  --------------------------------------

    Atom       Charge   Shell Charges
 -----------   ------   -------------------------------------------------------
    1 O    8     8.31   2.00  0.84  0.84  2.81  1.81  0.01
    2 H    1     0.82   0.67  0.07  0.08
    3 H    1     0.81   0.66  0.06  0.08
    4 O    8     8.37   2.00  0.83  0.84  2.81  1.87  0.01
    5 H    1     0.87   0.69  0.09  0.08
    6 H    1     0.81   0.64  0.09  0.09
    7 O    8     8.37   2.00  0.83  0.84  2.83  1.85  0.01
    8 H    1     0.80   0.63  0.09  0.09
    9 H    1     0.84   0.68  0.07  0.08

       Multipole analysis of the density wrt the origin
       ------------------------------------------------

     L   x y z        total         open         nuclear
     -   - - -        -----         ----         -------
     0   0 0 0     -0.000000      0.000000     30.000000

     1   1 0 0      0.227468      0.000000     -0.000000
     1   0 1 0      1.146326      0.000000     -0.000000
     1   0 0 1     -0.668296      0.000000     -0.000000

     2   2 0 0    -10.201398      0.000000    123.931244
     2   1 1 0      0.056020      0.000000      3.414069
     2   1 0 1     -1.902095      0.000000      3.744304
     2   0 2 0    -13.963865      0.000000     24.358805
     2   0 1 1      3.643610      0.000000    -54.825155
     2   0 0 2    -18.791797      0.000000    181.824796


 Parallel integral file used      57 records with       0 large values

                              NWChem Gradients Module
                              -----------------------



  wavefunction    =   RHF     



                         RHF ENERGY GRADIENTS

    atom               coordinates                        gradient
                 x          y          z           x          y          z
   1 O       1.166134   1.023673  -3.089861   -0.034153   0.005641  -0.018684
   2 H       2.212508   2.075619  -1.997343    0.016185   0.013889   0.018396
   3 H       2.019694  -0.603078  -2.996745    0.012982  -0.020329   0.002535
   4 O       1.505961  -1.064286   3.093844    0.007921  -0.032746   0.014572
   5 H       2.340392   0.562802   2.881291    0.013563   0.026276  -0.006496
   6 H      -0.201625  -0.753515   2.446262   -0.024452   0.007541  -0.010294
   7 O      -2.740821  -0.266438   0.101600    0.002263  -0.023502   0.020552
   8 H      -1.611199   0.363944  -1.236911    0.021874   0.011213  -0.020348
   9 H      -4.209959   0.810632   0.058786   -0.016183   0.012016  -0.000233

                 ----------------------------------------
                 |  Time  |  1-e(secs)   |  2-e(secs)   |
                 ----------------------------------------
                 |  CPU   |       0.01   |       1.12   |
                 ----------------------------------------
                 |  WALL  |       0.01   |       1.12   |
                 ----------------------------------------

 Task  times  cpu:        2.7s     wall:        2.7s


                                NWChem Input Module
                                -------------------


 Summary of allocated global arrays
-----------------------------------
  No active global arrays



                         GA Statistics for process    0
                         ------------------------------

       create   destroy   get      put      acc     scatter   gather  read&inc
calls:  268      268     8621     3880     3533        0        0      138     
number of processes/call 0.00e+00 0.00e+00 0.00e+00 0.00e+00 0.00e+00
bytes total:             1.47e+07 8.82e+06 2.14e+06 0.00e+00 0.00e+00 1.10e+03
bytes remote:            0.00e+00 0.00e+00 0.00e+00 0.00e+00 0.00e+00 0.00e+00
Max memory consumed for GA by this process: 539136 bytes

MA_summarize_allocated_blocks: starting scan ...
MA_summarize_allocated_blocks: scan completed: 0 heap blocks, 0 stack blocks
MA usage statistics:

	allocation statistics:
					      heap	     stack
					      ----	     -----
	current number of blocks	         0	         0
	maximum number of blocks	        18	        28
	current total bytes		         0	         0
	maximum total bytes		  57703112	  26171432
	maximum total K-bytes		     57704	     26172
	maximum total M-bytes		        58	        27


                                     CITATION
                                     --------
                Please cite the following reference when publishing
                           results obtained with NWChem:

          E. Aprà, E. J. Bylaska, W. A. de Jong, N. Govind, K. Kowalski,
       T. P. Straatsma, M. Valiev, H. J. J. van Dam, Y. Alexeev, J. Anchell,
       V. Anisimov, F. W. Aquino, R. Atta-Fynn, J. Autschbach, N. P. Bauman,
     J. C. Becca, D. E. Bernholdt, K. Bhaskaran-Nair, S. Bogatko, P. Borowski,
        J. Boschen, J. Brabec, A. Bruner, E. Cauët, Y. Chen, G. N. Chuev,
      C. J. Cramer, J. Daily, M. J. O. Deegan, T. H. Dunning Jr., M. Dupuis,
   K. G. Dyall, G. I. Fann, S. A. Fischer, A. Fonari, H. Früchtl, L. Gagliardi,
      J. Garza, N. Gawande, S. Ghosh, K. Glaesemann, A. W. Götz, J. Hammond,
       V. Helms, E. D. Hermes, K. Hirao, S. Hirata, M. Jacquelin, L. Jensen,
   B. G. Johnson, H. Jónsson, R. A. Kendall, M. Klemm, R. Kobayashi, V. Konkov,
      S. Krishnamoorthy, M. Krishnan, Z. Lin, R. D. Lins, R. J. Littlefield,
      A. J. Logsdail, K. Lopata, W. Ma, A. V. Marenich, J. Martin del Campo,
   D. Mejia-Rodriguez, J. E. Moore, J. M. Mullin, T. Nakajima, D. R. Nascimento,
    J. A. Nichols, P. J. Nichols, J. Nieplocha, A. Otero-de-la-Roza, B. Palmer,
    A. Panyala, T. Pirojsirikul, B. Peng, R. Peverati, J. Pittner, L. Pollack,
   R. M. Richard, P. Sadayappan, G. C. Schatz, W. A. Shelton, D. W. Silverstein,
   D. M. A. Smith, T. A. Soares, D. Song, M. Swart, H. L. Taylor, G. S. Thomas,
            V. Tipparaju, D. G. Truhlar, K. Tsemekhman, T. Van Voorhis,
     Á. Vázquez-Mayagoitia, P. Verma, O. Villa, A. Vishnu, K. D. Vogiatzis,
        D. Wang, J. H. Weare, M. J. Williamson, T. L. Windus, K. Woliński,
        A. T. Wong, Q. Wu, C. Yang, Q. Yu, M. Zacharias, Z. Zhang, Y. Zhao,
                                and R. J. Harrison
                        "NWChem: Past, present, and future
                         J. Chem. Phys. 152, 184102 (2020)
                               doi:10.1063/5.0004997

                                      AUTHORS
                                      -------
     E. Apra, E. J. Bylaska, N. Govind, K. Kowalski, M. Valiev, W. A. de Jong,
      T. P. Straatsma, H. J. J. van Dam, D. Wang, T. L. Windus, N. P. Bauman,
       A. Panyala, J. Hammond, J. Autschbach, K. Bhaskaran-Nair, J. Brabec,
    K. Lopata, S. A. Fischer, S. Krishnamoorthy, M. Jacquelin, W. Ma, M. Klemm,
       O. Villa, Y. Chen, V. Anisimov, F. Aquino, S. Hirata, M. T. Hackler,
           Eric Hermes, L. Jensen, J. E. Moore, J. C. Becca, V. Konjkov,
            D. Mejia-Rodriguez, T. Risthaus, M. Malagoli, A. Marenich,
   A. Otero-de-la-Roza, J. Mullin, P. Nichols, R. Peverati, J. Pittner, Y. Zhao,
        P.-D. Fan, A. Fonari, M. J. Williamson, R. J. Harrison, J. R. Rehr,
      M. Dupuis, D. Silverstein, D. M. A. Smith, J. Nieplocha, V. Tipparaju,
      M. Krishnan, B. E. Van Kuiken, A. Vazquez-Mayagoitia, M. Swart, Q. Wu,
   T. Van Voorhis, A. A. Auer, M. Nooijen, L. D. Crosby, E. Brown, G. Cisneros,
     G. I. Fann, H. Fruchtl, J. Garza, K. Hirao, R. A. Kendall, J. A. Nichols,
       K. Tsemekhman, K. Wolinski, J. Anchell, D. E. Bernholdt, P. Borowski,
       T. Clark, D. Clerc, H. Dachsel, M. J. O. Deegan, K. Dyall, D. Elwood,
      E. Glendening, M. Gutowski, A. C. Hess, J. Jaffe, B. G. Johnson, J. Ju,
        R. Kobayashi, R. Kutteh, Z. Lin, R. Littlefield, X. Long, B. Meng,
      T. Nakajima, S. Niu, L. Pollack, M. Rosing, K. Glaesemann, G. Sandrone,
      M. Stave, H. Taylor, G. Thomas, J. H. van Lenthe, A. T. Wong, Z. Zhang.

 Total times  cpu:        2.7s     wall:        2.8s
