 argument  1 = nwchem/input_4_11_at_worker_2.nw



============================== echo of input deck ==============================
echo
memory 1000 mb
geometry noautosym noautoz
O -0.82054445 0.61636011 -1.6312343
H -0.26682713 1.17302621 -1.05309865
H -0.36885969 -0.24447946 -1.58195952
O -0.64071556 -0.48854013 1.6410419
H -0.19915392 0.37247798 1.5285638
H -1.54433112 -0.32408724 1.298356
O 0.57630762 -1.69154092 -0.42866929
H 0.43417462 -2.64420081 -0.48595869
H 0.08911917 -1.3894609 0.38589939
O 2.81159896 -0.10395953 -0.18689424
H 3.46294039 -0.4517338 0.43482057
H 2.1584952 -0.82915775 -0.30211113
end
basis spherical
 * library cc-pvdz
end
task scf gradient
================================================================================


                                         
                                         


             Northwest Computational Chemistry Package (NWChem) 7.0.2
             --------------------------------------------------------


                    Environmental Molecular Sciences Laboratory
                       Pacific Northwest National Laboratory
                                Richland, WA 99352

                              Copyright (c) 1994-2020
                       Pacific Northwest National Laboratory
                            Battelle Memorial Institute

             NWChem is an open-source computational chemistry package
                        distributed under the terms of the
                      Educational Community License (ECL) 2.0
             A copy of the license is included with this distribution
                              in the LICENSE.TXT file

                                  ACKNOWLEDGMENT
                                  --------------

            This software and its documentation were developed at the
            EMSL at Pacific Northwest National Laboratory, a multiprogram
            national laboratory, operated for the U.S. Department of Energy
            by Battelle under Contract Number DE-AC05-76RL01830. Support
            for this work was provided by the Department of Energy Office
            of Biological and Environmental Research, Office of Basic
            Energy Sciences, and the Office of Advanced Scientific Computing.


           Job information
           ---------------

    hostname        = pop-os
    program         = nwchem
    date            = Thu Jul  8 18:20:06 2021

    compiled        = Wed_Jan_06_19:48:08_2021
    source          = /build/nwchem-ksKH2r/nwchem-7.0.2
    nwchem branch   = 7.0.2
    nwchem revision = N/A
    ga revision     = 5.7.1
    use scalapack   = T
    input           = nwchem/input_4_11_at_worker_2.nw
    prefix          = input_4_11_at_worker_2.
    data base       = ./input_4_11_at_worker_2.db
    status          = startup
    nproc           =        1
    time left       =     -1s



           Memory information
           ------------------

    heap     =   32767998 doubles =    250.0 Mbytes
    stack    =   32767995 doubles =    250.0 Mbytes
    global   =   65536000 doubles =    500.0 Mbytes (distinct from heap & stack)
    total    =  131071993 doubles =   1000.0 Mbytes
    verify   = yes
    hardfail = no 


           Directory information
           ---------------------

  0 permanent = .
  0 scratch   = .




                                NWChem Input Module
                                -------------------



 Scaling coordinates for geometry "geometry" by  1.889725989
 (inverse scale =  0.529177249)



                             Geometry "geometry" -> ""
                             -------------------------

 Output coordinates in angstroms (scale by  1.889725989 to convert to a.u.)

  No.       Tag          Charge          X              Y              Z
 ---- ---------------- ---------- -------------- -------------- --------------
    1 O                    8.0000    -1.30001270     1.05833660    -1.51569591
    2 H                    1.0000    -0.74629538     1.61500270    -0.93756026
    3 H                    1.0000    -0.84832794     0.19749703    -1.46642113
    4 O                    8.0000    -1.12018381    -0.04656364     1.75658029
    5 H                    1.0000    -0.67862217     0.81445447     1.64410219
    6 H                    1.0000    -2.02379937     0.11788925     1.41389439
    7 O                    8.0000     0.09683937    -1.24956443    -0.31313090
    8 H                    1.0000    -0.04529363    -2.20222432    -0.37042030
    9 H                    1.0000    -0.39034908    -0.94748441     0.50143778
   10 O                    8.0000     2.33213071     0.33801696    -0.07135585
   11 H                    1.0000     2.98347214    -0.00975731     0.55035896
   12 H                    1.0000     1.67902695    -0.38718126    -0.18657274

      Atomic Mass 
      ----------- 

      O                 15.994910
      H                  1.007825


 Effective nuclear repulsion energy (a.u.)     136.4585263528

            Nuclear Dipole moment (a.u.) 
            ----------------------------
        X                 Y               Z
 ---------------- ---------------- ----------------
    -0.0000000000     0.0000000000     0.0000000000


            XYZ format geometry
            -------------------
    12
 geometry
 O                    -1.30001270     1.05833660    -1.51569591
 H                    -0.74629538     1.61500270    -0.93756026
 H                    -0.84832794     0.19749703    -1.46642113
 O                    -1.12018381    -0.04656364     1.75658029
 H                    -0.67862217     0.81445447     1.64410219
 H                    -2.02379937     0.11788925     1.41389439
 O                     0.09683937    -1.24956443    -0.31313090
 H                    -0.04529363    -2.20222432    -0.37042030
 H                    -0.39034908    -0.94748441     0.50143778
 O                     2.33213071     0.33801696    -0.07135585
 H                     2.98347214    -0.00975731     0.55035896
 H                     1.67902695    -0.38718126    -0.18657274

 ==============================================================================
                                internuclear distances
 ------------------------------------------------------------------------------
       center one      |      center two      | atomic units |  angstroms
 ------------------------------------------------------------------------------
    2 H                |   1 O                |     1.84258  |     0.97505
    3 H                |   1 O                |     1.83944  |     0.97339
    5 H                |   4 O                |     1.84089  |     0.97416
    6 H                |   4 O                |     1.85251  |     0.98031
    8 H                |   7 O                |     1.82341  |     0.96491
    9 H                |   7 O                |     1.88227  |     0.99606
   11 H                |  10 O                |     1.82407  |     0.96526
   12 H                |  10 O                |     1.85707  |     0.98272
 ------------------------------------------------------------------------------
                         number of included internuclear distances:          8
 ==============================================================================



 ==============================================================================
                                 internuclear angles
 ------------------------------------------------------------------------------
        center 1       |       center 2       |       center 3       |  degrees
 ------------------------------------------------------------------------------
    2 H                |   1 O                |   3 H                |   102.20
    5 H                |   4 O                |   6 H                |   103.25
    8 H                |   7 O                |   9 H                |   106.02
   11 H                |  10 O                |  12 H                |   104.96
 ------------------------------------------------------------------------------
                            number of included internuclear angles:          4
 ==============================================================================





 Summary of "ao basis" -> "" (spherical)
 ------------------------------------------------------------------------------
       Tag                 Description            Shells   Functions and Types
 ---------------- ------------------------------  ------  ---------------------
 *                          cc-pvdz                   on all atoms 


                      Basis "ao basis" -> "ao basis" (spherical)
                      -----
  O (Oxygen)
  ----------
            Exponent  Coefficients 
       -------------- ---------------------------------------------------------
  1 S  1.17200000E+04  0.000710
  1 S  1.75900000E+03  0.005470
  1 S  4.00800000E+02  0.027837
  1 S  1.13700000E+02  0.104800
  1 S  3.70300000E+01  0.283062
  1 S  1.32700000E+01  0.448719
  1 S  5.02500000E+00  0.270952
  1 S  1.01300000E+00  0.015458

  2 S  1.17200000E+04 -0.000160
  2 S  1.75900000E+03 -0.001263
  2 S  4.00800000E+02 -0.006267
  2 S  1.13700000E+02 -0.025716
  2 S  3.70300000E+01 -0.070924
  2 S  1.32700000E+01 -0.165411
  2 S  5.02500000E+00 -0.116955
  2 S  1.01300000E+00  0.557368

  3 S  3.02300000E-01  1.000000

  4 P  1.77000000E+01  0.043018
  4 P  3.85400000E+00  0.228913
  4 P  1.04600000E+00  0.508728

  5 P  2.75300000E-01  1.000000

  6 D  1.18500000E+00  1.000000

  H (Hydrogen)
  ------------
            Exponent  Coefficients 
       -------------- ---------------------------------------------------------
  1 S  1.30100000E+01  0.019685
  1 S  1.96200000E+00  0.137977
  1 S  4.44600000E-01  0.478148

  2 S  1.22000000E-01  1.000000

  3 P  7.27000000E-01  1.000000



 Summary of "ao basis" -> "ao basis" (spherical)
 ------------------------------------------------------------------------------
       Tag                 Description            Shells   Functions and Types
 ---------------- ------------------------------  ------  ---------------------
 O                          cc-pvdz                  6       14   3s2p1d
 H                          cc-pvdz                  3        5   2s1p


                                 NWChem SCF Module
                                 -----------------



  ao basis        = "ao basis"
  functions       =    96
  atoms           =    12
  closed shells   =    20
  open shells     =     0
  charge          =   0.00
  wavefunction    = RHF 
  input vectors   = atomic
  output vectors  = ./input_4_11_at_worker_2.movecs
  use symmetry    = F
  symmetry adapt  = F


 Summary of "ao basis" -> "ao basis" (spherical)
 ------------------------------------------------------------------------------
       Tag                 Description            Shells   Functions and Types
 ---------------- ------------------------------  ------  ---------------------
 O                          cc-pvdz                  6       14   3s2p1d
 H                          cc-pvdz                  3        5   2s1p



 Forming initial guess at       0.1s


      Superposition of Atomic Density Guess
      -------------------------------------

 Sum of atomic energies:        -303.04891642

      Non-variational initial energy
      ------------------------------

 Total energy =    -303.746315
 1-e energy   =    -686.701794
 2-e energy   =     246.496953
 HOMO         =      -0.459331
 LUMO         =       0.037330


 Starting SCF solution at       0.5s



 ----------------------------------------------
         Quadratically convergent ROHF

 Convergence threshold     :          1.000E-04
 Maximum no. of iterations :           30
 Final Fock-matrix accuracy:          1.000E-07
 ----------------------------------------------


 Integral file          = ./input_4_11_at_worker_2.aoints.0
 Record size in doubles =  65536        No. of integs per rec  =  43688
 Max. records in memory =    339        Max. records in file   = 400247
 No. of bits per label  =      8        No. of bits per value  =     64


 #quartets = 5.042D+05 #integrals = 5.890D+06 #direct =  0.0% #cached =100.0%


              iter       energy          gnorm     gmax       time
             ----- ------------------- --------- --------- --------
                 1     -304.0098100119  1.53D+00  2.34D-01      2.0
                 2     -304.1197378021  3.36D-01  7.57D-02      2.2
                 3     -304.1288230901  2.79D-02  3.87D-03      2.5
                 4     -304.1288940326  5.61D-04  1.07D-04      2.8
                 5     -304.1288940571  2.70D-06  4.67D-07      3.4


       Final RHF  results 
       ------------------ 

         Total SCF energy =   -304.128894057070
      One-electron energy =   -691.742840358501
      Two-electron energy =    251.155419948584
 Nuclear repulsion energy =    136.458526352847

        Time for solution =      2.8s


             Final eigenvalues
             -----------------

              1      
    1  -20.6097
    2  -20.5741
    3  -20.5368
    4  -20.5207
    5   -1.3879
    6   -1.3527
    7   -1.3137
    8   -1.3003
    9   -0.7403
   10   -0.7305
   11   -0.6796
   12   -0.6730
   13   -0.6261
   14   -0.5916
   15   -0.5603
   16   -0.5429
   17   -0.5299
   18   -0.5048
   19   -0.4765
   20   -0.4647
   21    0.1370
   22    0.1941
   23    0.2096
   24    0.2337
   25    0.2610
   26    0.3330
   27    0.3755
   28    0.4026
   29    0.7182
   30    0.7286

                       ROHF Final Molecular Orbital Analysis
                       -------------------------------------

 Vector    5  Occ=2.000000D+00  E=-1.387947D+00
              MO Center= -1.1D+00, -2.3D-02,  1.5D+00, r^2= 1.0D+00
   Bfn.  Coefficient  Atom+Function         Bfn.  Coefficient  Atom+Function  
  ----- ------------  ---------------      ----- ------------  ---------------
    26      0.427505   4 O  s                27      0.378647   4 O  s         
    39      0.175710   5 H  s                44      0.171773   6 H  s         

 Vector    6  Occ=2.000000D+00  E=-1.352674D+00
              MO Center= -4.4D-02, -1.2D+00, -8.4D-02, r^2= 1.3D+00
   Bfn.  Coefficient  Atom+Function         Bfn.  Coefficient  Atom+Function  
  ----- ------------  ---------------      ----- ------------  ---------------
    50      0.420648   7 O  s                51      0.384443   7 O  s         
    63      0.177430   8 H  s                68      0.152898   9 H  s         

 Vector    7  Occ=2.000000D+00  E=-1.313698D+00
              MO Center= -1.1D+00,  9.9D-01, -1.4D+00, r^2= 6.3D-01
   Bfn.  Coefficient  Atom+Function         Bfn.  Coefficient  Atom+Function  
  ----- ------------  ---------------      ----- ------------  ---------------
     2      0.440876   1 O  s                 3      0.388471   1 O  s         
    15      0.187128   2 H  s                20      0.182687   3 H  s         

 Vector    8  Occ=2.000000D+00  E=-1.300287D+00
              MO Center=  2.3D+00,  1.6D-01,  4.4D-04, r^2= 6.8D-01
   Bfn.  Coefficient  Atom+Function         Bfn.  Coefficient  Atom+Function  
  ----- ------------  ---------------      ----- ------------  ---------------
    74      0.438693  10 O  s                75      0.388577  10 O  s         
    87      0.190183  11 H  s                92      0.174216  12 H  s         

 Vector    9  Occ=2.000000D+00  E=-7.403278D-01
              MO Center= -1.1D+00,  4.0D-02,  1.6D+00, r^2= 1.2D+00
   Bfn.  Coefficient  Atom+Function         Bfn.  Coefficient  Atom+Function  
  ----- ------------  ---------------      ----- ------------  ---------------
    28      0.434782   4 O  px               44     -0.313637   6 H  s         
    39      0.296292   5 H  s                31      0.212968   4 O  px        
    29      0.196426   4 O  py        

 Vector   10  Occ=2.000000D+00  E=-7.305023D-01
              MO Center= -1.5D-01, -1.1D+00,  9.1D-02, r^2= 1.7D+00
   Bfn.  Coefficient  Atom+Function         Bfn.  Coefficient  Atom+Function  
  ----- ------------  ---------------      ----- ------------  ---------------
    53      0.364142   7 O  py               63     -0.295699   8 H  s         
    68      0.275287   9 H  s                54      0.240180   7 O  pz        
    56      0.174501   7 O  py               29     -0.171269   4 O  py        

 Vector   11  Occ=2.000000D+00  E=-6.795884D-01
              MO Center=  1.7D+00, -8.8D-02, -3.3D-02, r^2= 2.5D+00
   Bfn.  Coefficient  Atom+Function         Bfn.  Coefficient  Atom+Function  
  ----- ------------  ---------------      ----- ------------  ---------------
    76      0.352803  10 O  px               92     -0.282254  12 H  s         
    87      0.273691  11 H  s                78      0.189886  10 O  pz        
    52     -0.172708   7 O  px               79      0.164017  10 O  px        

 Vector   12  Occ=2.000000D+00  E=-6.729511D-01
              MO Center= -9.1D-01,  9.0D-01, -1.3D+00, r^2= 1.7D+00
   Bfn.  Coefficient  Atom+Function         Bfn.  Coefficient  Atom+Function  
  ----- ------------  ---------------      ----- ------------  ---------------
     5      0.442433   1 O  py               15      0.306142   2 H  s         
    20     -0.306631   3 H  s                 8      0.211336   1 O  py        
     6      0.156294   1 O  pz        

 Vector   13  Occ=2.000000D+00  E=-6.260636D-01
              MO Center= -7.6D-01, -2.0D-01,  1.3D+00, r^2= 2.4D+00
   Bfn.  Coefficient  Atom+Function         Bfn.  Coefficient  Atom+Function  
  ----- ------------  ---------------      ----- ------------  ---------------
    29      0.412824   4 O  py               27     -0.293157   4 O  s         
    32      0.269338   4 O  py               28     -0.197343   4 O  px        
    44      0.188691   6 H  s                53      0.178166   7 O  py        
    39      0.176965   5 H  s                30     -0.165059   4 O  pz        

 Vector   14  Occ=2.000000D+00  E=-5.915728D-01
              MO Center=  6.4D-02, -6.0D-01,  2.3D-01, r^2= 3.5D+00
   Bfn.  Coefficient  Atom+Function         Bfn.  Coefficient  Atom+Function  
  ----- ------------  ---------------      ----- ------------  ---------------
    30      0.270430   4 O  pz               51      0.247839   7 O  s         
    53      0.245858   7 O  py               54     -0.245436   7 O  pz        
    52      0.208973   7 O  px               33      0.200107   4 O  pz        
    57     -0.169831   7 O  pz               63     -0.166643   8 H  s         
    56      0.157965   7 O  py        

 Vector   15  Occ=2.000000D+00  E=-5.603239D-01
              MO Center= -5.4D-01,  5.5D-01, -1.0D+00, r^2= 3.7D+00
   Bfn.  Coefficient  Atom+Function         Bfn.  Coefficient  Atom+Function  
  ----- ------------  ---------------      ----- ------------  ---------------
     4      0.353342   1 O  px                3     -0.284971   1 O  s         
     6      0.238636   1 O  pz                7      0.236820   1 O  px        
    52     -0.191389   7 O  px               15      0.188230   2 H  s         
    77      0.161930  10 O  py                9      0.159529   1 O  pz        
    55     -0.157632   7 O  px               54     -0.156174   7 O  pz        

 Vector   16  Occ=2.000000D+00  E=-5.429220D-01
              MO Center=  5.8D-01,  1.6D-01,  3.7D-01, r^2= 5.0D+00
   Bfn.  Coefficient  Atom+Function         Bfn.  Coefficient  Atom+Function  
  ----- ------------  ---------------      ----- ------------  ---------------
    30      0.340202   4 O  pz               77      0.327386  10 O  py        
    33      0.265361   4 O  pz               75      0.238168  10 O  s         
    80      0.226004  10 O  py               78     -0.168089  10 O  pz        
    52     -0.152127   7 O  px               87     -0.151880  11 H  s         

 Vector   17  Occ=2.000000D+00  E=-5.299270D-01
              MO Center= -4.2D-01, -1.3D-01,  4.0D-01, r^2= 4.2D+00
   Bfn.  Coefficient  Atom+Function         Bfn.  Coefficient  Atom+Function  
  ----- ------------  ---------------      ----- ------------  ---------------
    30      0.375833   4 O  pz               54      0.302720   7 O  pz        
    33      0.298861   4 O  pz               57      0.214748   7 O  pz        
     4      0.205646   1 O  px               77     -0.177958  10 O  py        

 Vector   18  Occ=2.000000D+00  E=-5.047783D-01
              MO Center=  5.7D-01, -6.7D-01, -2.9D-01, r^2= 2.7D+00
   Bfn.  Coefficient  Atom+Function         Bfn.  Coefficient  Atom+Function  
  ----- ------------  ---------------      ----- ------------  ---------------
    52      0.453862   7 O  px               55      0.356452   7 O  px        
    77      0.292770  10 O  py               54      0.242140   7 O  pz        
    80      0.211032  10 O  py               57      0.194853   7 O  pz        

 Vector   19  Occ=2.000000D+00  E=-4.764904D-01
              MO Center= -1.2D+00,  1.0D+00, -1.5D+00, r^2= 8.7D-01
   Bfn.  Coefficient  Atom+Function         Bfn.  Coefficient  Atom+Function  
  ----- ------------  ---------------      ----- ------------  ---------------
     6      0.493586   1 O  pz                9      0.391992   1 O  pz        
     4     -0.335160   1 O  px                7     -0.263976   1 O  px        
     5     -0.170606   1 O  py        

 Vector   20  Occ=2.000000D+00  E=-4.646996D-01
              MO Center=  2.3D+00,  3.1D-01, -7.0D-02, r^2= 7.0D-01
   Bfn.  Coefficient  Atom+Function         Bfn.  Coefficient  Atom+Function  
  ----- ------------  ---------------      ----- ------------  ---------------
    78      0.480195  10 O  pz               81      0.382751  10 O  pz        
    76     -0.339574  10 O  px               79     -0.278318  10 O  px        
    77      0.204904  10 O  py               80      0.162453  10 O  py        

 Vector   21  Occ=0.000000D+00  E= 1.370189D-01
              MO Center= -7.3D-01,  3.2D-01,  7.0D-01, r^2= 5.8D+00
   Bfn.  Coefficient  Atom+Function         Bfn.  Coefficient  Atom+Function  
  ----- ------------  ---------------      ----- ------------  ---------------
    27      0.692130   4 O  s                40     -0.653713   5 H  s         
    45     -0.531162   6 H  s                64     -0.505428   8 H  s         
    16     -0.430450   2 H  s                51      0.336180   7 O  s         
     3      0.312388   1 O  s                32      0.235938   4 O  py        
    88     -0.230776  11 H  s                75      0.220715  10 O  s         

 Vector   22  Occ=0.000000D+00  E= 1.941232D-01
              MO Center= -9.9D-02, -1.4D+00,  3.4D-02, r^2= 6.2D+00
   Bfn.  Coefficient  Atom+Function         Bfn.  Coefficient  Atom+Function  
  ----- ------------  ---------------      ----- ------------  ---------------
    64      1.156093   8 H  s                51     -0.724653   7 O  s         
    40     -0.438788   5 H  s                27      0.422242   4 O  s         
    56      0.345218   7 O  py               88      0.344127  11 H  s         
    45     -0.311351   6 H  s                16     -0.252783   2 H  s         
    75     -0.250741  10 O  s                21      0.202662   3 H  s         

 Vector   23  Occ=0.000000D+00  E= 2.095669D-01
              MO Center= -4.5D-01,  2.4D-01,  8.3D-01, r^2= 8.4D+00
   Bfn.  Coefficient  Atom+Function         Bfn.  Coefficient  Atom+Function  
  ----- ------------  ---------------      ----- ------------  ---------------
    45      1.197635   6 H  s                88     -0.694365  11 H  s         
    40     -0.652822   5 H  s                16     -0.524945   2 H  s         
    75      0.448644  10 O  s                31      0.425754   4 O  px        
    27     -0.313242   4 O  s                64      0.304900   8 H  s         
     3      0.252945   1 O  s                28      0.196479   4 O  px        

 Vector   24  Occ=0.000000D+00  E= 2.336690D-01
              MO Center=  1.5D+00,  4.2D-02,  5.2D-01, r^2= 8.5D+00
   Bfn.  Coefficient  Atom+Function         Bfn.  Coefficient  Atom+Function  
  ----- ------------  ---------------      ----- ------------  ---------------
    88      1.170656  11 H  s                45      0.651659   6 H  s         
    75     -0.648100  10 O  s                16     -0.524962   2 H  s         
    64     -0.453902   8 H  s                40     -0.381931   5 H  s         
     3      0.328575   1 O  s                79     -0.249744  10 O  px        
    31      0.238782   4 O  px               81     -0.232301  10 O  pz        

 Vector   25  Occ=0.000000D+00  E= 2.610132D-01
              MO Center= -5.9D-01,  1.0D+00,  9.8D-02, r^2= 5.4D+00
   Bfn.  Coefficient  Atom+Function         Bfn.  Coefficient  Atom+Function  
  ----- ------------  ---------------      ----- ------------  ---------------
    40      1.174526   5 H  s                16     -0.927239   2 H  s         
     3      0.799195   1 O  s                45     -0.496869   6 H  s         
    21     -0.432385   3 H  s                27     -0.396428   4 O  s         
    64      0.314003   8 H  s                32     -0.289621   4 O  py        
    31     -0.282118   4 O  px                7      0.234323   1 O  px        

 Vector   26  Occ=0.000000D+00  E= 3.329690D-01
              MO Center= -5.4D-01,  3.7D-02, -1.1D+00, r^2= 5.0D+00
   Bfn.  Coefficient  Atom+Function         Bfn.  Coefficient  Atom+Function  
  ----- ------------  ---------------      ----- ------------  ---------------
    21      1.589307   3 H  s                16     -1.074712   2 H  s         
    64     -0.647750   8 H  s                 8      0.574424   1 O  py        
    93      0.436435  12 H  s                56     -0.406574   7 O  py        
    69      0.349720   9 H  s                40      0.347522   5 H  s         
    45     -0.332286   6 H  s                 3     -0.301482   1 O  s         

 Vector   27  Occ=0.000000D+00  E= 3.755466D-01
              MO Center=  2.5D-01, -6.9D-01,  1.5D-01, r^2= 5.2D+00
   Bfn.  Coefficient  Atom+Function         Bfn.  Coefficient  Atom+Function  
  ----- ------------  ---------------      ----- ------------  ---------------
    69      1.639231   9 H  s                93      0.985543  12 H  s         
    21     -0.914966   3 H  s                64     -0.721092   8 H  s         
    88     -0.578355  11 H  s                51     -0.531590   7 O  s         
    40     -0.470888   5 H  s                57     -0.432541   7 O  pz        
    16      0.344443   2 H  s                56     -0.332221   7 O  py        

 Vector   28  Occ=0.000000D+00  E= 4.025845D-01
              MO Center=  7.7D-01, -7.5D-01,  6.4D-02, r^2= 4.8D+00
   Bfn.  Coefficient  Atom+Function         Bfn.  Coefficient  Atom+Function  
  ----- ------------  ---------------      ----- ------------  ---------------
    93      1.846855  12 H  s                69     -1.607606   9 H  s         
    88     -0.730422  11 H  s                75     -0.577630  10 O  s         
    79      0.439318  10 O  px               55     -0.434436   7 O  px        
    45      0.354888   6 H  s                51      0.332475   7 O  s         
    57      0.312790   7 O  pz               80      0.286232  10 O  py        

 Vector   29  Occ=0.000000D+00  E= 7.182093D-01
              MO Center= -9.7D-01, -4.5D-02,  1.1D+00, r^2= 3.4D+00
   Bfn.  Coefficient  Atom+Function         Bfn.  Coefficient  Atom+Function  
  ----- ------------  ---------------      ----- ------------  ---------------
    44     -0.859911   6 H  s                39      0.821030   5 H  s         
    45      0.657949   6 H  s                40     -0.564247   5 H  s         
    63     -0.464609   8 H  s                31     -0.345472   4 O  px        
    69     -0.304820   9 H  s                64      0.284022   8 H  s         
    32     -0.225249   4 O  py               68      0.220839   9 H  s         

 Vector   30  Occ=0.000000D+00  E= 7.286083D-01
              MO Center= -1.8D-01, -6.0D-01, -6.8D-02, r^2= 3.8D+00
   Bfn.  Coefficient  Atom+Function         Bfn.  Coefficient  Atom+Function  
  ----- ------------  ---------------      ----- ------------  ---------------
    69      1.052434   9 H  s                68     -0.917846   9 H  s         
    21     -0.503804   3 H  s                63      0.483455   8 H  s         
    93     -0.471559  12 H  s                39      0.415797   5 H  s         
    64     -0.411284   8 H  s                40     -0.406318   5 H  s         
    20      0.381150   3 H  s                92      0.347219  12 H  s         


 center of mass
 --------------
 x =   0.00182552 y =   0.02085400 z =  -0.02987947

 moments of inertia (a.u.)
 ------------------
         536.704980356542          46.038451486704          14.257760155772
          46.038451486704         886.863983209119          74.886716649948
          14.257760155772          74.886716649948         736.103374430447

  Mulliken analysis of the total density
  --------------------------------------

    Atom       Charge   Shell Charges
 -----------   ------   -------------------------------------------------------
    1 O    8     8.36   2.00  0.83  0.84  2.81  1.86  0.01
    2 H    1     0.85   0.68  0.08  0.08
    3 H    1     0.82   0.66  0.08  0.09
    4 O    8     8.32   2.00  0.84  0.84  2.82  1.81  0.01
    5 H    1     0.81   0.66  0.06  0.08
    6 H    1     0.81   0.66  0.07  0.08
    7 O    8     8.38   2.00  0.82  0.85  2.83  1.86  0.01
    8 H    1     0.83   0.68  0.07  0.08
    9 H    1     0.78   0.61  0.09  0.09
   10 O    8     8.38   2.00  0.83  0.84  2.82  1.88  0.01
   11 H    1     0.85   0.69  0.08  0.08
   12 H    1     0.81   0.63  0.09  0.09

       Multipole analysis of the density wrt the origin
       ------------------------------------------------

     L   x y z        total         open         nuclear
     -   - - -        -----         ----         -------
     0   0 0 0     -0.000000      0.000000     40.000000

     1   1 0 0     -0.368201      0.000000     -0.000000
     1   0 1 0     -0.812193      0.000000      0.000000
     1   0 0 1      1.223740      0.000000      0.000000

     2   2 0 0    -19.374894      0.000000    303.012023
     2   1 1 0     -1.177605      0.000000    -27.228981
     2   1 0 1     -0.852562      0.000000     -8.698132
     2   0 2 0    -14.685499      0.000000    112.864509
     2   0 1 1      3.988814      0.000000    -37.283865
     2   0 0 2    -23.192418      0.000000    186.932158


 Parallel integral file used     135 records with       0 large values

                              NWChem Gradients Module
                              -----------------------



  wavefunction    =   RHF     



                         RHF ENERGY GRADIENTS

    atom               coordinates                        gradient
                 x          y          z           x          y          z
   1 O      -2.456668   1.999966  -2.864250   -0.026484   0.005332  -0.023938
   2 H      -1.410294   3.051913  -1.771732    0.014941   0.015350   0.021253
   3 H      -1.603107   0.373215  -2.771134    0.010685  -0.021136   0.002287
   4 O      -2.116840  -0.087993   3.319455    0.021818  -0.032540   0.013094
   5 H      -1.282410   1.539096   3.106903    0.010390   0.023047  -0.005414
   6 H      -3.824426   0.222778   2.671873   -0.028289   0.004634  -0.011547
   7 O       0.183000  -2.361334  -0.591732    0.021707   0.015925  -0.022438
   8 H      -0.085593  -4.161601  -0.699993   -0.002849  -0.019626  -0.000915
   9 H      -0.737653  -1.790486   0.947580   -0.018809   0.013170   0.027873
  10 O       4.407088   0.638759  -0.134843    0.004747   0.026562  -0.012022
  11 H       5.637945  -0.018439   1.040028    0.014534  -0.007052   0.013902
  12 H       3.172901  -0.731666  -0.352571   -0.022392  -0.023666  -0.002136

                 ----------------------------------------
                 |  Time  |  1-e(secs)   |  2-e(secs)   |
                 ----------------------------------------
                 |  CPU   |       0.02   |       1.69   |
                 ----------------------------------------
                 |  WALL  |       0.02   |       1.69   |
                 ----------------------------------------

 Task  times  cpu:        5.2s     wall:        5.2s


                                NWChem Input Module
                                -------------------


 Summary of allocated global arrays
-----------------------------------
  No active global arrays



                         GA Statistics for process    0
                         ------------------------------

       create   destroy   get      put      acc     scatter   gather  read&inc
calls:  268      268     1.11e+04 5671     4684        0        0      166     
number of processes/call 0.00e+00 0.00e+00 0.00e+00 0.00e+00 0.00e+00
bytes total:             2.58e+07 1.54e+07 3.80e+06 0.00e+00 0.00e+00 1.33e+03
bytes remote:            0.00e+00 0.00e+00 0.00e+00 0.00e+00 0.00e+00 0.00e+00
Max memory consumed for GA by this process: 958464 bytes

MA_summarize_allocated_blocks: starting scan ...
MA_summarize_allocated_blocks: scan completed: 0 heap blocks, 0 stack blocks
MA usage statistics:

	allocation statistics:
					      heap	     stack
					      ----	     -----
	current number of blocks	         0	         0
	maximum number of blocks	        18	        28
	current total bytes		         0	         0
	maximum total bytes		 177770832	  26178744
	maximum total K-bytes		    177771	     26179
	maximum total M-bytes		       178	        27


                                     CITATION
                                     --------
                Please cite the following reference when publishing
                           results obtained with NWChem:

          E. Aprà, E. J. Bylaska, W. A. de Jong, N. Govind, K. Kowalski,
       T. P. Straatsma, M. Valiev, H. J. J. van Dam, Y. Alexeev, J. Anchell,
       V. Anisimov, F. W. Aquino, R. Atta-Fynn, J. Autschbach, N. P. Bauman,
     J. C. Becca, D. E. Bernholdt, K. Bhaskaran-Nair, S. Bogatko, P. Borowski,
        J. Boschen, J. Brabec, A. Bruner, E. Cauët, Y. Chen, G. N. Chuev,
      C. J. Cramer, J. Daily, M. J. O. Deegan, T. H. Dunning Jr., M. Dupuis,
   K. G. Dyall, G. I. Fann, S. A. Fischer, A. Fonari, H. Früchtl, L. Gagliardi,
      J. Garza, N. Gawande, S. Ghosh, K. Glaesemann, A. W. Götz, J. Hammond,
       V. Helms, E. D. Hermes, K. Hirao, S. Hirata, M. Jacquelin, L. Jensen,
   B. G. Johnson, H. Jónsson, R. A. Kendall, M. Klemm, R. Kobayashi, V. Konkov,
      S. Krishnamoorthy, M. Krishnan, Z. Lin, R. D. Lins, R. J. Littlefield,
      A. J. Logsdail, K. Lopata, W. Ma, A. V. Marenich, J. Martin del Campo,
   D. Mejia-Rodriguez, J. E. Moore, J. M. Mullin, T. Nakajima, D. R. Nascimento,
    J. A. Nichols, P. J. Nichols, J. Nieplocha, A. Otero-de-la-Roza, B. Palmer,
    A. Panyala, T. Pirojsirikul, B. Peng, R. Peverati, J. Pittner, L. Pollack,
   R. M. Richard, P. Sadayappan, G. C. Schatz, W. A. Shelton, D. W. Silverstein,
   D. M. A. Smith, T. A. Soares, D. Song, M. Swart, H. L. Taylor, G. S. Thomas,
            V. Tipparaju, D. G. Truhlar, K. Tsemekhman, T. Van Voorhis,
     Á. Vázquez-Mayagoitia, P. Verma, O. Villa, A. Vishnu, K. D. Vogiatzis,
        D. Wang, J. H. Weare, M. J. Williamson, T. L. Windus, K. Woliński,
        A. T. Wong, Q. Wu, C. Yang, Q. Yu, M. Zacharias, Z. Zhang, Y. Zhao,
                                and R. J. Harrison
                        "NWChem: Past, present, and future
                         J. Chem. Phys. 152, 184102 (2020)
                               doi:10.1063/5.0004997

                                      AUTHORS
                                      -------
     E. Apra, E. J. Bylaska, N. Govind, K. Kowalski, M. Valiev, W. A. de Jong,
      T. P. Straatsma, H. J. J. van Dam, D. Wang, T. L. Windus, N. P. Bauman,
       A. Panyala, J. Hammond, J. Autschbach, K. Bhaskaran-Nair, J. Brabec,
    K. Lopata, S. A. Fischer, S. Krishnamoorthy, M. Jacquelin, W. Ma, M. Klemm,
       O. Villa, Y. Chen, V. Anisimov, F. Aquino, S. Hirata, M. T. Hackler,
           Eric Hermes, L. Jensen, J. E. Moore, J. C. Becca, V. Konjkov,
            D. Mejia-Rodriguez, T. Risthaus, M. Malagoli, A. Marenich,
   A. Otero-de-la-Roza, J. Mullin, P. Nichols, R. Peverati, J. Pittner, Y. Zhao,
        P.-D. Fan, A. Fonari, M. J. Williamson, R. J. Harrison, J. R. Rehr,
      M. Dupuis, D. Silverstein, D. M. A. Smith, J. Nieplocha, V. Tipparaju,
      M. Krishnan, B. E. Van Kuiken, A. Vazquez-Mayagoitia, M. Swart, Q. Wu,
   T. Van Voorhis, A. A. Auer, M. Nooijen, L. D. Crosby, E. Brown, G. Cisneros,
     G. I. Fann, H. Fruchtl, J. Garza, K. Hirao, R. A. Kendall, J. A. Nichols,
       K. Tsemekhman, K. Wolinski, J. Anchell, D. E. Bernholdt, P. Borowski,
       T. Clark, D. Clerc, H. Dachsel, M. J. O. Deegan, K. Dyall, D. Elwood,
      E. Glendening, M. Gutowski, A. C. Hess, J. Jaffe, B. G. Johnson, J. Ju,
        R. Kobayashi, R. Kutteh, Z. Lin, R. Littlefield, X. Long, B. Meng,
      T. Nakajima, S. Niu, L. Pollack, M. Rosing, K. Glaesemann, G. Sandrone,
      M. Stave, H. Taylor, G. Thomas, J. H. van Lenthe, A. T. Wong, Z. Zhang.

 Total times  cpu:        5.2s     wall:        5.3s
