 argument  1 = nwchem/input_3_6_at_worker_2.nw



============================== echo of input deck ==============================
echo
memory 1000 mb
geometry noautosym noautoz
O 0.87715956 1.70409266 0.47858616
H 1.70199937 1.19722607 0.29220265
H 1.16181787 2.60891668 0.65546661
O -0.64071556 -0.48854013 1.6410419
H -0.19915392 0.37247798 1.5285638
H -1.54433112 -0.32408724 1.298356
O 2.81159896 -0.10395953 -0.18689424
H 3.46294039 -0.4517338 0.43482057
H 2.1584952 -0.82915775 -0.30211113
end
basis spherical
 * library cc-pvdz
end
task scf gradient
================================================================================


                                         
                                         


             Northwest Computational Chemistry Package (NWChem) 7.0.2
             --------------------------------------------------------


                    Environmental Molecular Sciences Laboratory
                       Pacific Northwest National Laboratory
                                Richland, WA 99352

                              Copyright (c) 1994-2020
                       Pacific Northwest National Laboratory
                            Battelle Memorial Institute

             NWChem is an open-source computational chemistry package
                        distributed under the terms of the
                      Educational Community License (ECL) 2.0
             A copy of the license is included with this distribution
                              in the LICENSE.TXT file

                                  ACKNOWLEDGMENT
                                  --------------

            This software and its documentation were developed at the
            EMSL at Pacific Northwest National Laboratory, a multiprogram
            national laboratory, operated for the U.S. Department of Energy
            by Battelle under Contract Number DE-AC05-76RL01830. Support
            for this work was provided by the Department of Energy Office
            of Biological and Environmental Research, Office of Basic
            Energy Sciences, and the Office of Advanced Scientific Computing.


           Job information
           ---------------

    hostname        = pop-os
    program         = nwchem
    date            = Thu Jul  8 18:19:45 2021

    compiled        = Wed_Jan_06_19:48:08_2021
    source          = /build/nwchem-ksKH2r/nwchem-7.0.2
    nwchem branch   = 7.0.2
    nwchem revision = N/A
    ga revision     = 5.7.1
    use scalapack   = T
    input           = nwchem/input_3_6_at_worker_2.nw
    prefix          = input_3_6_at_worker_2.
    data base       = ./input_3_6_at_worker_2.db
    status          = startup
    nproc           =        1
    time left       =     -1s



           Memory information
           ------------------

    heap     =   32768000 doubles =    250.0 Mbytes
    stack    =   32767997 doubles =    250.0 Mbytes
    global   =   65536000 doubles =    500.0 Mbytes (distinct from heap & stack)
    total    =  131071997 doubles =   1000.0 Mbytes
    verify   = yes
    hardfail = no 


           Directory information
           ---------------------

  0 permanent = .
  0 scratch   = .




                                NWChem Input Module
                                -------------------



 Scaling coordinates for geometry "geometry" by  1.889725989
 (inverse scale =  0.529177249)



                             Geometry "geometry" -> ""
                             -------------------------

 Output coordinates in angstroms (scale by  1.889725989 to convert to a.u.)

  No.       Tag          Charge          X              Y              Z
 ---- ---------------- ---------- -------------- -------------- --------------
    1 O                    8.0000    -0.16037749     1.32187980    -0.16705281
    2 H                    1.0000     0.66446232     0.81501321    -0.35343632
    3 H                    1.0000     0.12428082     2.22670382     0.00982764
    4 O                    8.0000    -1.67825261    -0.87075299     0.99540293
    5 H                    1.0000    -1.23669097    -0.00973488     0.88292483
    6 H                    1.0000    -2.58186817    -0.70630010     0.65271703
    7 O                    8.0000     1.77406191    -0.48617239    -0.83253321
    8 H                    1.0000     2.42540334    -0.83394666    -0.21081840
    9 H                    1.0000     1.12095815    -1.21137061    -0.94775010

      Atomic Mass 
      ----------- 

      O                 15.994910
      H                  1.007825


 Effective nuclear repulsion energy (a.u.)      78.3005976275

            Nuclear Dipole moment (a.u.) 
            ----------------------------
        X                 Y               Z
 ---------------- ---------------- ----------------
    -0.0000000000     0.0000000000     0.0000000000


            XYZ format geometry
            -------------------
     9
 geometry
 O                    -0.16037749     1.32187980    -0.16705281
 H                     0.66446232     0.81501321    -0.35343632
 H                     0.12428082     2.22670382     0.00982764
 O                    -1.67825261    -0.87075299     0.99540293
 H                    -1.23669097    -0.00973488     0.88292483
 H                    -2.58186817    -0.70630010     0.65271703
 O                     1.77406191    -0.48617239    -0.83253321
 H                     2.42540334    -0.83394666    -0.21081840
 H                     1.12095815    -1.21137061    -0.94775010

 ==============================================================================
                                internuclear distances
 ------------------------------------------------------------------------------
       center one      |      center two      | atomic units |  angstroms
 ------------------------------------------------------------------------------
    2 H                |   1 O                |     1.86309  |     0.98591
    3 H                |   1 O                |     1.82339  |     0.96490
    5 H                |   4 O                |     1.84089  |     0.97416
    6 H                |   4 O                |     1.85251  |     0.98031
    8 H                |   7 O                |     1.82407  |     0.96526
    9 H                |   7 O                |     1.85707  |     0.98272
 ------------------------------------------------------------------------------
                         number of included internuclear distances:          6
 ==============================================================================



 ==============================================================================
                                 internuclear angles
 ------------------------------------------------------------------------------
        center 1       |       center 2       |       center 3       |  degrees
 ------------------------------------------------------------------------------
    2 H                |   1 O                |   3 H                |   105.66
    5 H                |   4 O                |   6 H                |   103.25
    8 H                |   7 O                |   9 H                |   104.96
 ------------------------------------------------------------------------------
                            number of included internuclear angles:          3
 ==============================================================================





 Summary of "ao basis" -> "" (spherical)
 ------------------------------------------------------------------------------
       Tag                 Description            Shells   Functions and Types
 ---------------- ------------------------------  ------  ---------------------
 *                          cc-pvdz                   on all atoms 


                      Basis "ao basis" -> "ao basis" (spherical)
                      -----
  O (Oxygen)
  ----------
            Exponent  Coefficients 
       -------------- ---------------------------------------------------------
  1 S  1.17200000E+04  0.000710
  1 S  1.75900000E+03  0.005470
  1 S  4.00800000E+02  0.027837
  1 S  1.13700000E+02  0.104800
  1 S  3.70300000E+01  0.283062
  1 S  1.32700000E+01  0.448719
  1 S  5.02500000E+00  0.270952
  1 S  1.01300000E+00  0.015458

  2 S  1.17200000E+04 -0.000160
  2 S  1.75900000E+03 -0.001263
  2 S  4.00800000E+02 -0.006267
  2 S  1.13700000E+02 -0.025716
  2 S  3.70300000E+01 -0.070924
  2 S  1.32700000E+01 -0.165411
  2 S  5.02500000E+00 -0.116955
  2 S  1.01300000E+00  0.557368

  3 S  3.02300000E-01  1.000000

  4 P  1.77000000E+01  0.043018
  4 P  3.85400000E+00  0.228913
  4 P  1.04600000E+00  0.508728

  5 P  2.75300000E-01  1.000000

  6 D  1.18500000E+00  1.000000

  H (Hydrogen)
  ------------
            Exponent  Coefficients 
       -------------- ---------------------------------------------------------
  1 S  1.30100000E+01  0.019685
  1 S  1.96200000E+00  0.137977
  1 S  4.44600000E-01  0.478148

  2 S  1.22000000E-01  1.000000

  3 P  7.27000000E-01  1.000000



 Summary of "ao basis" -> "ao basis" (spherical)
 ------------------------------------------------------------------------------
       Tag                 Description            Shells   Functions and Types
 ---------------- ------------------------------  ------  ---------------------
 O                          cc-pvdz                  6       14   3s2p1d
 H                          cc-pvdz                  3        5   2s1p


                                 NWChem SCF Module
                                 -----------------



  ao basis        = "ao basis"
  functions       =    72
  atoms           =     9
  closed shells   =    15
  open shells     =     0
  charge          =   0.00
  wavefunction    = RHF 
  input vectors   = atomic
  output vectors  = ./input_3_6_at_worker_2.movecs
  use symmetry    = F
  symmetry adapt  = F


 Summary of "ao basis" -> "ao basis" (spherical)
 ------------------------------------------------------------------------------
       Tag                 Description            Shells   Functions and Types
 ---------------- ------------------------------  ------  ---------------------
 O                          cc-pvdz                  6       14   3s2p1d
 H                          cc-pvdz                  3        5   2s1p



 Forming initial guess at       0.0s


      Superposition of Atomic Density Guess
      -------------------------------------

 Sum of atomic energies:        -227.28668731

      Non-variational initial energy
      ------------------------------

 Total energy =    -227.776159
 1-e energy   =    -466.937730
 2-e energy   =     160.860973
 HOMO         =      -0.462475
 LUMO         =       0.056106


 Starting SCF solution at       0.2s



 ----------------------------------------------
         Quadratically convergent ROHF

 Convergence threshold     :          1.000E-04
 Maximum no. of iterations :           30
 Final Fock-matrix accuracy:          1.000E-07
 ----------------------------------------------


 Integral file          = ./input_3_6_at_worker_2.aoints.0
 Record size in doubles =  65536        No. of integs per rec  =  43688
 Max. records in memory =    110        Max. records in file   = 400287
 No. of bits per label  =      8        No. of bits per value  =     64


 #quartets = 1.704D+05 #integrals = 2.151D+06 #direct =  0.0% #cached =100.0%


              iter       energy          gnorm     gmax       time
             ----- ------------------- --------- --------- --------
                 1     -228.0063161906  1.33D+00  2.60D-01      0.9
                 2     -228.0894523270  2.90D-01  7.78D-02      1.0
                 3     -228.0961609526  2.40D-02  3.79D-03      1.1
                 4     -228.0962110673  4.43D-04  9.90D-05      1.3
                 5     -228.0962110815  8.51D-06  1.71D-06      1.4


       Final RHF  results 
       ------------------ 

         Total SCF energy =   -228.096211081470
      One-electron energy =   -471.033761047093
      Two-electron energy =    164.636952338147
 Nuclear repulsion energy =     78.300597627477

        Time for solution =      1.2s


             Final eigenvalues
             -----------------

              1      
    1  -20.5906
    2  -20.5400
    3  -20.5199
    4   -1.3681
    5   -1.3196
    6   -1.2951
    7   -0.7300
    8   -0.6946
    9   -0.6597
   10   -0.6035
   11   -0.5647
   12   -0.5340
   13   -0.5168
   14   -0.4824
   15   -0.4610
   16    0.1590
   17    0.2093
   18    0.2291
   19    0.2485
   20    0.3558
   21    0.3962
   22    0.7368
   23    0.7845
   24    0.7924
   25    0.8223

                       ROHF Final Molecular Orbital Analysis
                       -------------------------------------

 Vector    4  Occ=2.000000D+00  E=-1.368094D+00
              MO Center=  1.7D+00, -5.7D-01, -7.4D-01, r^2= 6.9D-01
   Bfn.  Coefficient  Atom+Function         Bfn.  Coefficient  Atom+Function  
  ----- ------------  ---------------      ----- ------------  ---------------
    50      0.439687  7 O  s                 51      0.388082  7 O  s          
    63      0.184534  8 H  s                 68      0.175532  9 H  s          

 Vector    5  Occ=2.000000D+00  E=-1.319560D+00
              MO Center= -2.9D-02,  1.3D+00, -1.4D-01, r^2= 9.9D-01
   Bfn.  Coefficient  Atom+Function         Bfn.  Coefficient  Atom+Function  
  ----- ------------  ---------------      ----- ------------  ---------------
     2      0.430413  1 O  s                  3      0.384249  1 O  s          
    20      0.184280  3 H  s                 15      0.166561  2 H  s          

 Vector    6  Occ=2.000000D+00  E=-1.295124D+00
              MO Center= -1.7D+00, -6.6D-01,  8.9D-01, r^2= 8.1D-01
   Bfn.  Coefficient  Atom+Function         Bfn.  Coefficient  Atom+Function  
  ----- ------------  ---------------      ----- ------------  ---------------
    26      0.436512  4 O  s                 27      0.386838  4 O  s          
    44      0.182285  6 H  s                 39      0.178581  5 H  s          

 Vector    7  Occ=2.000000D+00  E=-7.300234D-01
              MO Center=  1.7D+00, -5.3D-01, -6.9D-01, r^2= 1.3D+00
   Bfn.  Coefficient  Atom+Function         Bfn.  Coefficient  Atom+Function  
  ----- ------------  ---------------      ----- ------------  ---------------
    52      0.414739  7 O  px                63      0.325022  8 H  s          
    68     -0.284701  9 H  s                 54      0.223427  7 O  pz         
    55      0.199793  7 O  px         

 Vector    8  Occ=2.000000D+00  E=-6.946055D-01
              MO Center=  3.0D-01,  1.0D+00, -2.6D-01, r^2= 1.9D+00
   Bfn.  Coefficient  Atom+Function         Bfn.  Coefficient  Atom+Function  
  ----- ------------  ---------------      ----- ------------  ---------------
     5      0.397539  1 O  py                20      0.289448  3 H  s          
    15     -0.279282  2 H  s                 53     -0.189696  7 O  py         
     8      0.186708  1 O  py                 4     -0.151537  1 O  px         

 Vector    9  Occ=2.000000D+00  E=-6.597293D-01
              MO Center= -1.6D+00, -5.5D-01,  8.1D-01, r^2= 1.5D+00
   Bfn.  Coefficient  Atom+Function         Bfn.  Coefficient  Atom+Function  
  ----- ------------  ---------------      ----- ------------  ---------------
    28      0.402260  4 O  px                39      0.306421  5 H  s          
    44     -0.301364  6 H  s                 29      0.228017  4 O  py         
    31      0.191948  4 O  px         

 Vector   10  Occ=2.000000D+00  E=-6.035109D-01
              MO Center=  1.3D+00, -1.3D-01, -6.6D-01, r^2= 2.2D+00
   Bfn.  Coefficient  Atom+Function         Bfn.  Coefficient  Atom+Function  
  ----- ------------  ---------------      ----- ------------  ---------------
    53      0.440880  7 O  py                51      0.298041  7 O  s          
    56      0.288471  7 O  py                54     -0.207299  7 O  pz         
     5      0.194219  1 O  py                63     -0.183909  8 H  s          
    68     -0.179393  9 H  s                  3     -0.154435  1 O  s          
    20      0.154847  3 H  s          

 Vector   11  Occ=2.000000D+00  E=-5.646943D-01
              MO Center= -4.9D-02,  4.4D-01, -9.5D-02, r^2= 3.5D+00
   Bfn.  Coefficient  Atom+Function         Bfn.  Coefficient  Atom+Function  
  ----- ------------  ---------------      ----- ------------  ---------------
     4      0.381650  1 O  px                 7      0.265109  1 O  px         
    54      0.244699  7 O  pz                 3     -0.241242  1 O  s          
    57      0.183138  7 O  pz                27      0.169349  4 O  s          
    20      0.157225  3 H  s                 28      0.152072  4 O  px         

 Vector   12  Occ=2.000000D+00  E=-5.339594D-01
              MO Center= -6.9D-01, -6.1D-01,  4.5D-01, r^2= 3.9D+00
   Bfn.  Coefficient  Atom+Function         Bfn.  Coefficient  Atom+Function  
  ----- ------------  ---------------      ----- ------------  ---------------
    29      0.386442  4 O  py                27     -0.268838  4 O  s          
    32      0.266193  4 O  py                54      0.245146  7 O  pz         
    57      0.191506  7 O  pz                44      0.169501  6 H  s          
    52     -0.169924  7 O  px                39      0.167066  5 H  s          
    28     -0.160718  4 O  px                30     -0.157033  4 O  pz         

 Vector   13  Occ=2.000000D+00  E=-5.167619D-01
              MO Center=  7.8D-01, -5.3D-02, -4.0D-01, r^2= 3.3D+00
   Bfn.  Coefficient  Atom+Function         Bfn.  Coefficient  Atom+Function  
  ----- ------------  ---------------      ----- ------------  ---------------
    54      0.350676  7 O  pz                 4     -0.313864  1 O  px         
    57      0.279192  7 O  pz                52     -0.264800  7 O  px         
    53      0.222664  7 O  py                 7     -0.216475  1 O  px         
    55     -0.207292  7 O  px                29     -0.194096  4 O  py         
    56      0.167480  7 O  py         

 Vector   14  Occ=2.000000D+00  E=-4.823949D-01
              MO Center= -2.0D-01,  1.2D+00, -1.2D-01, r^2= 1.0D+00
   Bfn.  Coefficient  Atom+Function         Bfn.  Coefficient  Atom+Function  
  ----- ------------  ---------------      ----- ------------  ---------------
     6      0.595443  1 O  pz                 9      0.474707  1 O  pz         

 Vector   15  Occ=2.000000D+00  E=-4.609542D-01
              MO Center= -1.7D+00, -8.3D-01,  9.8D-01, r^2= 6.8D-01
   Bfn.  Coefficient  Atom+Function         Bfn.  Coefficient  Atom+Function  
  ----- ------------  ---------------      ----- ------------  ---------------
    30      0.577576  4 O  pz                33      0.460031  4 O  pz         
    28     -0.186676  4 O  px                31     -0.155126  4 O  px         
    29      0.150758  4 O  py         

 Vector   16  Occ=0.000000D+00  E= 1.589734D-01
              MO Center=  1.4D+00, -5.6D-01, -3.0D-01, r^2= 5.4D+00
   Bfn.  Coefficient  Atom+Function         Bfn.  Coefficient  Atom+Function  
  ----- ------------  ---------------      ----- ------------  ---------------
    51      0.856431  7 O  s                 64     -0.788608  8 H  s          
    69     -0.624710  9 H  s                 21     -0.464455  3 H  s          
     3      0.351656  1 O  s                 56     -0.250378  7 O  py         
    27      0.235245  4 O  s                 45     -0.216069  6 H  s          
    40     -0.163505  5 H  s          

 Vector   17  Occ=0.000000D+00  E= 2.093366D-01
              MO Center= -9.3D-03,  6.8D-01,  1.9D-01, r^2= 8.6D+00
   Bfn.  Coefficient  Atom+Function         Bfn.  Coefficient  Atom+Function  
  ----- ------------  ---------------      ----- ------------  ---------------
    21      0.941599  3 H  s                 64     -0.733765  8 H  s          
    45      0.666052  6 H  s                  3     -0.607021  1 O  s          
    27     -0.480540  4 O  s                 51      0.430397  7 O  s          
     8     -0.263604  1 O  py                31      0.166923  4 O  px         
    55      0.153589  7 O  px         

 Vector   18  Occ=0.000000D+00  E= 2.290729D-01
              MO Center= -8.1D-01,  3.3D-01,  9.7D-02, r^2= 8.4D+00
   Bfn.  Coefficient  Atom+Function         Bfn.  Coefficient  Atom+Function  
  ----- ------------  ---------------      ----- ------------  ---------------
    45     -0.934342  6 H  s                 21      0.896626  3 H  s          
    69     -0.719909  9 H  s                 27      0.546736  4 O  s          
    64      0.512223  8 H  s                  3     -0.500059  1 O  s          
    31     -0.284550  4 O  px                 8     -0.268968  1 O  py         
    55     -0.240902  7 O  px         

 Vector   19  Occ=0.000000D+00  E= 2.485234D-01
              MO Center=  4.3D-01, -1.0D+00, -3.4D-01, r^2= 7.3D+00
   Bfn.  Coefficient  Atom+Function         Bfn.  Coefficient  Atom+Function  
  ----- ------------  ---------------      ----- ------------  ---------------
    69      1.306907  9 H  s                 64     -1.083385  8 H  s          
    45     -0.739443  6 H  s                 55      0.459241  7 O  px         
    27      0.415993  4 O  s                 57      0.259296  7 O  pz         
    21      0.240340  3 H  s                 31     -0.222644  4 O  px         
    52      0.207290  7 O  px                56      0.202181  7 O  py         

 Vector   20  Occ=0.000000D+00  E= 3.558264D-01
              MO Center= -7.9D-01,  3.4D-01,  6.6D-01, r^2= 4.6D+00
   Bfn.  Coefficient  Atom+Function         Bfn.  Coefficient  Atom+Function  
  ----- ------------  ---------------      ----- ------------  ---------------
    40      1.577456  5 H  s                 45     -0.857036  6 H  s          
    16      0.850182  2 H  s                 21     -0.782320  3 H  s          
     8      0.480111  1 O  py                31     -0.426552  4 O  px         
    27     -0.420141  4 O  s                 32     -0.366915  4 O  py         
    69     -0.329694  9 H  s                  3     -0.233854  1 O  s          

 Vector   21  Occ=0.000000D+00  E= 3.962164D-01
              MO Center=  4.3D-01,  7.3D-01, -7.3D-02, r^2= 4.3D+00
   Bfn.  Coefficient  Atom+Function         Bfn.  Coefficient  Atom+Function  
  ----- ------------  ---------------      ----- ------------  ---------------
    16      2.017113  2 H  s                 40     -1.141653  5 H  s          
    21     -0.637040  3 H  s                  3     -0.552716  1 O  s          
     7     -0.479976  1 O  px                45      0.436724  6 H  s          
    27      0.374525  4 O  s                 64     -0.356483  8 H  s          
     8      0.342692  1 O  py                56     -0.286412  7 O  py         

 Vector   22  Occ=0.000000D+00  E= 7.368373D-01
              MO Center=  1.5D+00, -5.3D-01, -6.1D-01, r^2= 2.5D+00
   Bfn.  Coefficient  Atom+Function         Bfn.  Coefficient  Atom+Function  
  ----- ------------  ---------------      ----- ------------  ---------------
    68      0.954487  9 H  s                 63     -0.822586  8 H  s          
    69     -0.701303  9 H  s                 64      0.579792  8 H  s          
    55      0.409041  7 O  px                20     -0.318892  3 H  s          
    16      0.315156  2 H  s                 57      0.188976  7 O  pz         
    15     -0.186317  2 H  s                 52      0.176006  7 O  px         

 Vector   23  Occ=0.000000D+00  E= 7.844641D-01
              MO Center=  1.3D-01,  1.1D+00, -1.1D-01, r^2= 2.4D+00
   Bfn.  Coefficient  Atom+Function         Bfn.  Coefficient  Atom+Function  
  ----- ------------  ---------------      ----- ------------  ---------------
    16      1.173895  2 H  s                 15     -1.051494  2 H  s          
    20      0.727606  3 H  s                 21     -0.628189  3 H  s          
    40     -0.550668  5 H  s                  8     -0.376888  1 O  py         
    39      0.274205  5 H  s                  5     -0.194257  1 O  py         
    51     -0.184215  7 O  s                 27      0.182848  4 O  s          

 Vector   24  Occ=0.000000D+00  E= 7.924443D-01
              MO Center= -1.3D+00, -5.8D-01,  6.3D-01, r^2= 3.8D+00
   Bfn.  Coefficient  Atom+Function         Bfn.  Coefficient  Atom+Function  
  ----- ------------  ---------------      ----- ------------  ---------------
    44      0.900772  6 H  s                 39     -0.809043  5 H  s          
    40      0.729944  5 H  s                 45     -0.700152  6 H  s          
    63     -0.368619  8 H  s                 31      0.350700  4 O  px         
    15     -0.264845  2 H  s                 68     -0.251440  9 H  s          
    64      0.241516  8 H  s                 28      0.192293  4 O  px         

 Vector   25  Occ=0.000000D+00  E= 8.222877D-01
              MO Center=  1.2D+00, -5.6D-01, -2.7D-01, r^2= 4.8D+00
   Bfn.  Coefficient  Atom+Function         Bfn.  Coefficient  Atom+Function  
  ----- ------------  ---------------      ----- ------------  ---------------
    63      0.866965  8 H  s                 64     -0.632524  8 H  s          
    68      0.558664  9 H  s                 20     -0.430040  3 H  s          
    44      0.402458  6 H  s                 69     -0.400773  9 H  s          
    16      0.348161  2 H  s                 45     -0.324229  6 H  s          
    50     -0.202343  7 O  s                 21      0.197715  3 H  s          


 center of mass
 --------------
 x =  -0.01791301 y =  -0.00972262 z =  -0.00116050

 moments of inertia (a.u.)
 ------------------
         292.386767405884         -19.471416036800         194.752112590346
         -19.471416036800         504.892770293649          36.885855563318
         194.752112590346          36.885855563318         585.359283476955

  Mulliken analysis of the total density
  --------------------------------------

    Atom       Charge   Shell Charges
 -----------   ------   -------------------------------------------------------
    1 O    8     8.37   2.00  0.83  0.84  2.83  1.87  0.01
    2 H    1     0.80   0.62  0.09  0.09
    3 H    1     0.84   0.68  0.07  0.08
    4 O    8     8.37   2.00  0.83  0.84  2.81  1.87  0.01
    5 H    1     0.82   0.65  0.09  0.09
    6 H    1     0.84   0.68  0.08  0.08
    7 O    8     8.32   2.00  0.83  0.84  2.82  1.82  0.01
    8 H    1     0.82   0.67  0.06  0.08
    9 H    1     0.80   0.65  0.07  0.08

       Multipole analysis of the density wrt the origin
       ------------------------------------------------

     L   x y z        total         open         nuclear
     -   - - -        -----         ----         -------
     0   0 0 0      0.000000      0.000000     30.000000

     1   1 0 0      0.758113      0.000000     -0.000000
     1   0 1 0      0.172626      0.000000      0.000000
     1   0 0 1     -0.103034      0.000000      0.000000

     2   2 0 0     -9.464413      0.000000    227.505078
     2   1 1 0     -2.170720      0.000000      8.456611
     2   1 0 1      2.569633      0.000000   -105.525515
     2   0 2 0    -11.127506      0.000000    107.916926
     2   0 1 1      2.816389      0.000000    -17.406962
     2   0 0 2    -17.034078      0.000000     57.022918


 Parallel integral file used      50 records with       0 large values

                              NWChem Gradients Module
                              -----------------------



  wavefunction    =   RHF     



                         RHF ENERGY GRADIENTS

    atom               coordinates                        gradient
                 x          y          z           x          y          z
   1 O      -0.303070   2.497991  -0.315684   -0.028247  -0.007178  -0.001632
   2 H       1.255652   1.540152  -0.667898    0.027192  -0.018192  -0.004479
   3 H       0.234857   4.207860   0.018572    0.005648   0.019983   0.004022
   4 O      -3.171438  -1.645485   1.881039    0.021475  -0.025606   0.012993
   5 H      -2.337007  -0.018396   1.668486    0.010058   0.020407   0.000652
   6 H      -4.879023  -1.334714   1.233456   -0.033076   0.005778  -0.011822
   7 O       3.352491  -0.918733  -1.573260    0.006159   0.035011  -0.006946
   8 H       4.583348  -1.575931  -0.398389    0.013763  -0.005595   0.012352
   9 H       2.118304  -2.289159  -1.790988   -0.022972  -0.024608  -0.005140

                 ----------------------------------------
                 |  Time  |  1-e(secs)   |  2-e(secs)   |
                 ----------------------------------------
                 |  CPU   |       0.01   |       0.70   |
                 ----------------------------------------
                 |  WALL  |       0.01   |       0.71   |
                 ----------------------------------------

 Task  times  cpu:        2.2s     wall:        2.2s


                                NWChem Input Module
                                -------------------


 Summary of allocated global arrays
-----------------------------------
  No active global arrays



                         GA Statistics for process    0
                         ------------------------------

       create   destroy   get      put      acc     scatter   gather  read&inc
calls:  249      249     8485     3834     3497        0        0      141     
number of processes/call 0.00e+00 0.00e+00 0.00e+00 0.00e+00 0.00e+00
bytes total:             1.41e+07 8.42e+06 2.03e+06 0.00e+00 0.00e+00 1.13e+03
bytes remote:            0.00e+00 0.00e+00 0.00e+00 0.00e+00 0.00e+00 0.00e+00
Max memory consumed for GA by this process: 539136 bytes

MA_summarize_allocated_blocks: starting scan ...
MA_summarize_allocated_blocks: scan completed: 0 heap blocks, 0 stack blocks
MA usage statistics:

	allocation statistics:
					      heap	     stack
					      ----	     -----
	current number of blocks	         0	         0
	maximum number of blocks	        18	        28
	current total bytes		         0	         0
	maximum total bytes		  57703080	  26171400
	maximum total K-bytes		     57704	     26172
	maximum total M-bytes		        58	        27


                                     CITATION
                                     --------
                Please cite the following reference when publishing
                           results obtained with NWChem:

          E. Aprà, E. J. Bylaska, W. A. de Jong, N. Govind, K. Kowalski,
       T. P. Straatsma, M. Valiev, H. J. J. van Dam, Y. Alexeev, J. Anchell,
       V. Anisimov, F. W. Aquino, R. Atta-Fynn, J. Autschbach, N. P. Bauman,
     J. C. Becca, D. E. Bernholdt, K. Bhaskaran-Nair, S. Bogatko, P. Borowski,
        J. Boschen, J. Brabec, A. Bruner, E. Cauët, Y. Chen, G. N. Chuev,
      C. J. Cramer, J. Daily, M. J. O. Deegan, T. H. Dunning Jr., M. Dupuis,
   K. G. Dyall, G. I. Fann, S. A. Fischer, A. Fonari, H. Früchtl, L. Gagliardi,
      J. Garza, N. Gawande, S. Ghosh, K. Glaesemann, A. W. Götz, J. Hammond,
       V. Helms, E. D. Hermes, K. Hirao, S. Hirata, M. Jacquelin, L. Jensen,
   B. G. Johnson, H. Jónsson, R. A. Kendall, M. Klemm, R. Kobayashi, V. Konkov,
      S. Krishnamoorthy, M. Krishnan, Z. Lin, R. D. Lins, R. J. Littlefield,
      A. J. Logsdail, K. Lopata, W. Ma, A. V. Marenich, J. Martin del Campo,
   D. Mejia-Rodriguez, J. E. Moore, J. M. Mullin, T. Nakajima, D. R. Nascimento,
    J. A. Nichols, P. J. Nichols, J. Nieplocha, A. Otero-de-la-Roza, B. Palmer,
    A. Panyala, T. Pirojsirikul, B. Peng, R. Peverati, J. Pittner, L. Pollack,
   R. M. Richard, P. Sadayappan, G. C. Schatz, W. A. Shelton, D. W. Silverstein,
   D. M. A. Smith, T. A. Soares, D. Song, M. Swart, H. L. Taylor, G. S. Thomas,
            V. Tipparaju, D. G. Truhlar, K. Tsemekhman, T. Van Voorhis,
     Á. Vázquez-Mayagoitia, P. Verma, O. Villa, A. Vishnu, K. D. Vogiatzis,
        D. Wang, J. H. Weare, M. J. Williamson, T. L. Windus, K. Woliński,
        A. T. Wong, Q. Wu, C. Yang, Q. Yu, M. Zacharias, Z. Zhang, Y. Zhao,
                                and R. J. Harrison
                        "NWChem: Past, present, and future
                         J. Chem. Phys. 152, 184102 (2020)
                               doi:10.1063/5.0004997

                                      AUTHORS
                                      -------
     E. Apra, E. J. Bylaska, N. Govind, K. Kowalski, M. Valiev, W. A. de Jong,
      T. P. Straatsma, H. J. J. van Dam, D. Wang, T. L. Windus, N. P. Bauman,
       A. Panyala, J. Hammond, J. Autschbach, K. Bhaskaran-Nair, J. Brabec,
    K. Lopata, S. A. Fischer, S. Krishnamoorthy, M. Jacquelin, W. Ma, M. Klemm,
       O. Villa, Y. Chen, V. Anisimov, F. Aquino, S. Hirata, M. T. Hackler,
           Eric Hermes, L. Jensen, J. E. Moore, J. C. Becca, V. Konjkov,
            D. Mejia-Rodriguez, T. Risthaus, M. Malagoli, A. Marenich,
   A. Otero-de-la-Roza, J. Mullin, P. Nichols, R. Peverati, J. Pittner, Y. Zhao,
        P.-D. Fan, A. Fonari, M. J. Williamson, R. J. Harrison, J. R. Rehr,
      M. Dupuis, D. Silverstein, D. M. A. Smith, J. Nieplocha, V. Tipparaju,
      M. Krishnan, B. E. Van Kuiken, A. Vazquez-Mayagoitia, M. Swart, Q. Wu,
   T. Van Voorhis, A. A. Auer, M. Nooijen, L. D. Crosby, E. Brown, G. Cisneros,
     G. I. Fann, H. Fruchtl, J. Garza, K. Hirao, R. A. Kendall, J. A. Nichols,
       K. Tsemekhman, K. Wolinski, J. Anchell, D. E. Bernholdt, P. Borowski,
       T. Clark, D. Clerc, H. Dachsel, M. J. O. Deegan, K. Dyall, D. Elwood,
      E. Glendening, M. Gutowski, A. C. Hess, J. Jaffe, B. G. Johnson, J. Ju,
        R. Kobayashi, R. Kutteh, Z. Lin, R. Littlefield, X. Long, B. Meng,
      T. Nakajima, S. Niu, L. Pollack, M. Rosing, K. Glaesemann, G. Sandrone,
      M. Stave, H. Taylor, G. Thomas, J. H. van Lenthe, A. T. Wong, Z. Zhang.

 Total times  cpu:        2.2s     wall:        2.2s
