 argument  1 = nwchem/input_4_5_at_worker_4.nw



============================== echo of input deck ==============================
echo
memory 1000 mb
geometry noautosym noautoz
O 0.87715956 1.70409266 0.47858616
H 1.70199937 1.19722607 0.29220265
H 1.16181787 2.60891668 0.65546661
O -0.82054445 0.61636011 -1.6312343
H -0.26682713 1.17302621 -1.05309865
H -0.36885969 -0.24447946 -1.58195952
O 0.57630762 -1.69154092 -0.42866929
H 0.43417462 -2.64420081 -0.48595869
H 0.08911917 -1.3894609 0.38589939
O -2.88801599 -0.0663369 0.05761427
H -2.29024563 0.26724676 -0.65069518
H -3.66545029 0.50362404 0.03495814
end
basis spherical
 * library cc-pvdz
end
task scf gradient
================================================================================


                                         
                                         


             Northwest Computational Chemistry Package (NWChem) 7.0.2
             --------------------------------------------------------


                    Environmental Molecular Sciences Laboratory
                       Pacific Northwest National Laboratory
                                Richland, WA 99352

                              Copyright (c) 1994-2020
                       Pacific Northwest National Laboratory
                            Battelle Memorial Institute

             NWChem is an open-source computational chemistry package
                        distributed under the terms of the
                      Educational Community License (ECL) 2.0
             A copy of the license is included with this distribution
                              in the LICENSE.TXT file

                                  ACKNOWLEDGMENT
                                  --------------

            This software and its documentation were developed at the
            EMSL at Pacific Northwest National Laboratory, a multiprogram
            national laboratory, operated for the U.S. Department of Energy
            by Battelle under Contract Number DE-AC05-76RL01830. Support
            for this work was provided by the Department of Energy Office
            of Biological and Environmental Research, Office of Basic
            Energy Sciences, and the Office of Advanced Scientific Computing.


           Job information
           ---------------

    hostname        = pop-os
    program         = nwchem
    date            = Thu Jul  8 18:19:59 2021

    compiled        = Wed_Jan_06_19:48:08_2021
    source          = /build/nwchem-ksKH2r/nwchem-7.0.2
    nwchem branch   = 7.0.2
    nwchem revision = N/A
    ga revision     = 5.7.1
    use scalapack   = T
    input           = nwchem/input_4_5_at_worker_4.nw
    prefix          = input_4_5_at_worker_4.
    data base       = ./input_4_5_at_worker_4.db
    status          = startup
    nproc           =        1
    time left       =     -1s



           Memory information
           ------------------

    heap     =   32767996 doubles =    250.0 Mbytes
    stack    =   32768001 doubles =    250.0 Mbytes
    global   =   65536000 doubles =    500.0 Mbytes (distinct from heap & stack)
    total    =  131071997 doubles =   1000.0 Mbytes
    verify   = yes
    hardfail = no 


           Directory information
           ---------------------

  0 permanent = .
  0 scratch   = .




                                NWChem Input Module
                                -------------------



 Scaling coordinates for geometry "geometry" by  1.889725989
 (inverse scale =  0.529177249)



                             Geometry "geometry" -> ""
                             -------------------------

 Output coordinates in angstroms (scale by  1.889725989 to convert to a.u.)

  No.       Tag          Charge          X              Y              Z
 ---- ---------------- ---------- -------------- -------------- --------------
    1 O                    8.0000     1.40828500     1.55478021     0.84340642
    2 H                    1.0000     2.23312481     1.04791362     0.65702291
    3 H                    1.0000     1.69294331     2.45960423     1.02028687
    4 O                    8.0000    -0.28941901     0.46704766    -1.26641404
    5 H                    1.0000     0.26429831     1.02371376    -0.68827839
    6 H                    1.0000     0.16226575    -0.39379191    -1.21713926
    7 O                    8.0000     1.10743306    -1.84085337    -0.06384903
    8 H                    1.0000     0.96530006    -2.79351326    -0.12113843
    9 H                    1.0000     0.62024461    -1.53877335     0.75071965
   10 O                    8.0000    -2.35689055    -0.21564935     0.42243453
   11 H                    1.0000    -1.75912019     0.11793431    -0.28587492
   12 H                    1.0000    -3.13432485     0.35431159     0.39977840

      Atomic Mass 
      ----------- 

      O                 15.994910
      H                  1.007825


 Effective nuclear repulsion energy (a.u.)     132.7562792162

            Nuclear Dipole moment (a.u.) 
            ----------------------------
        X                 Y               Z
 ---------------- ---------------- ----------------
     0.0000000000    -0.0000000000     0.0000000000


            XYZ format geometry
            -------------------
    12
 geometry
 O                     1.40828500     1.55478021     0.84340642
 H                     2.23312481     1.04791362     0.65702291
 H                     1.69294331     2.45960423     1.02028687
 O                    -0.28941901     0.46704766    -1.26641404
 H                     0.26429831     1.02371376    -0.68827839
 H                     0.16226575    -0.39379191    -1.21713926
 O                     1.10743306    -1.84085337    -0.06384903
 H                     0.96530006    -2.79351326    -0.12113843
 H                     0.62024461    -1.53877335     0.75071965
 O                    -2.35689055    -0.21564935     0.42243453
 H                    -1.75912019     0.11793431    -0.28587492
 H                    -3.13432485     0.35431159     0.39977840

 ==============================================================================
                                internuclear distances
 ------------------------------------------------------------------------------
       center one      |      center two      | atomic units |  angstroms
 ------------------------------------------------------------------------------
    2 H                |   1 O                |     1.86309  |     0.98591
    3 H                |   1 O                |     1.82339  |     0.96490
    5 H                |   4 O                |     1.84258  |     0.97505
    6 H                |   4 O                |     1.83944  |     0.97339
    8 H                |   7 O                |     1.82341  |     0.96491
    9 H                |   7 O                |     1.88227  |     0.99606
   11 H                |  10 O                |     1.86146  |     0.98504
   12 H                |  10 O                |     1.82216  |     0.96425
 ------------------------------------------------------------------------------
                         number of included internuclear distances:          8
 ==============================================================================



 ==============================================================================
                                 internuclear angles
 ------------------------------------------------------------------------------
        center 1       |       center 2       |       center 3       |  degrees
 ------------------------------------------------------------------------------
    2 H                |   1 O                |   3 H                |   105.66
    5 H                |   4 O                |   6 H                |   102.20
    8 H                |   7 O                |   9 H                |   106.02
   11 H                |  10 O                |  12 H                |   105.80
 ------------------------------------------------------------------------------
                            number of included internuclear angles:          4
 ==============================================================================





 Summary of "ao basis" -> "" (spherical)
 ------------------------------------------------------------------------------
       Tag                 Description            Shells   Functions and Types
 ---------------- ------------------------------  ------  ---------------------
 *                          cc-pvdz                   on all atoms 


                      Basis "ao basis" -> "ao basis" (spherical)
                      -----
  O (Oxygen)
  ----------
            Exponent  Coefficients 
       -------------- ---------------------------------------------------------
  1 S  1.17200000E+04  0.000710
  1 S  1.75900000E+03  0.005470
  1 S  4.00800000E+02  0.027837
  1 S  1.13700000E+02  0.104800
  1 S  3.70300000E+01  0.283062
  1 S  1.32700000E+01  0.448719
  1 S  5.02500000E+00  0.270952
  1 S  1.01300000E+00  0.015458

  2 S  1.17200000E+04 -0.000160
  2 S  1.75900000E+03 -0.001263
  2 S  4.00800000E+02 -0.006267
  2 S  1.13700000E+02 -0.025716
  2 S  3.70300000E+01 -0.070924
  2 S  1.32700000E+01 -0.165411
  2 S  5.02500000E+00 -0.116955
  2 S  1.01300000E+00  0.557368

  3 S  3.02300000E-01  1.000000

  4 P  1.77000000E+01  0.043018
  4 P  3.85400000E+00  0.228913
  4 P  1.04600000E+00  0.508728

  5 P  2.75300000E-01  1.000000

  6 D  1.18500000E+00  1.000000

  H (Hydrogen)
  ------------
            Exponent  Coefficients 
       -------------- ---------------------------------------------------------
  1 S  1.30100000E+01  0.019685
  1 S  1.96200000E+00  0.137977
  1 S  4.44600000E-01  0.478148

  2 S  1.22000000E-01  1.000000

  3 P  7.27000000E-01  1.000000



 Summary of "ao basis" -> "ao basis" (spherical)
 ------------------------------------------------------------------------------
       Tag                 Description            Shells   Functions and Types
 ---------------- ------------------------------  ------  ---------------------
 O                          cc-pvdz                  6       14   3s2p1d
 H                          cc-pvdz                  3        5   2s1p


                                 NWChem SCF Module
                                 -----------------



  ao basis        = "ao basis"
  functions       =    96
  atoms           =    12
  closed shells   =    20
  open shells     =     0
  charge          =   0.00
  wavefunction    = RHF 
  input vectors   = atomic
  output vectors  = ./input_4_5_at_worker_4.movecs
  use symmetry    = F
  symmetry adapt  = F


 Summary of "ao basis" -> "ao basis" (spherical)
 ------------------------------------------------------------------------------
       Tag                 Description            Shells   Functions and Types
 ---------------- ------------------------------  ------  ---------------------
 O                          cc-pvdz                  6       14   3s2p1d
 H                          cc-pvdz                  3        5   2s1p



 Forming initial guess at       0.1s


      Superposition of Atomic Density Guess
      -------------------------------------

 Sum of atomic energies:        -303.04891642

      Non-variational initial energy
      ------------------------------

 Total energy =    -303.694372
 1-e energy   =    -679.305275
 2-e energy   =     242.854623
 HOMO         =      -0.459214
 LUMO         =       0.043126


 Starting SCF solution at       0.5s



 ----------------------------------------------
         Quadratically convergent ROHF

 Convergence threshold     :          1.000E-04
 Maximum no. of iterations :           30
 Final Fock-matrix accuracy:          1.000E-07
 ----------------------------------------------


 Integral file          = ./input_4_5_at_worker_4.aoints.0
 Record size in doubles =  65536        No. of integs per rec  =  43688
 Max. records in memory =    339        Max. records in file   = 400259
 No. of bits per label  =      8        No. of bits per value  =     64


 #quartets = 4.542D+05 #integrals = 5.215D+06 #direct =  0.0% #cached =100.0%


              iter       energy          gnorm     gmax       time
             ----- ------------------- --------- --------- --------
                 1     -304.0122683435  1.52D+00  2.96D-01      1.7
                 2     -304.1212553822  3.34D-01  6.73D-02      1.8
                 3     -304.1301959894  2.80D-02  3.86D-03      2.1
                 4     -304.1302658905  5.34D-04  9.59D-05      2.4
                 5     -304.1302659123  2.64D-06  4.45D-07      2.8


       Final RHF  results 
       ------------------ 

         Total SCF energy =   -304.130265912287
      One-electron energy =   -684.819132850381
      Two-electron energy =    247.932587721913
 Nuclear repulsion energy =    132.756279216181

        Time for solution =      2.3s


             Final eigenvalues
             -----------------

              1      
    1  -20.5869
    2  -20.5765
    3  -20.5335
    4  -20.5000
    5   -1.3610
    6   -1.3473
    7   -1.3164
    8   -1.2793
    9   -0.7251
   10   -0.7118
   11   -0.6772
   12   -0.6564
   13   -0.6010
   14   -0.5845
   15   -0.5584
   16   -0.5248
   17   -0.5179
   18   -0.5072
   19   -0.4670
   20   -0.4451
   21    0.1497
   22    0.1875
   23    0.2298
   24    0.2424
   25    0.2614
   26    0.3012
   27    0.3703
   28    0.4253
   29    0.7252
   30    0.7390

                       ROHF Final Molecular Orbital Analysis
                       -------------------------------------

 Vector    5  Occ=2.000000D+00  E=-1.361008D+00
              MO Center=  1.5D+00,  1.6D+00,  8.1D-01, r^2= 6.7D-01
   Bfn.  Coefficient  Atom+Function         Bfn.  Coefficient  Atom+Function  
  ----- ------------  ---------------      ----- ------------  ---------------
     2      0.441678   1 O  s                 3      0.389006   1 O  s         
    20      0.186944   3 H  s                15      0.175969   2 H  s         

 Vector    6  Occ=2.000000D+00  E=-1.347263D+00
              MO Center=  1.0D+00, -1.9D+00,  1.2D-02, r^2= 7.5D-01
   Bfn.  Coefficient  Atom+Function         Bfn.  Coefficient  Atom+Function  
  ----- ------------  ---------------      ----- ------------  ---------------
    50      0.440385   7 O  s                51      0.392103   7 O  s         
    63      0.187015   8 H  s                68      0.170237   9 H  s         

 Vector    7  Occ=2.000000D+00  E=-1.316400D+00
              MO Center= -2.2D-01,  3.7D-01, -1.1D+00, r^2= 1.1D+00
   Bfn.  Coefficient  Atom+Function         Bfn.  Coefficient  Atom+Function  
  ----- ------------  ---------------      ----- ------------  ---------------
    26      0.426298   4 O  s                27      0.382047   4 O  s         
    44      0.175368   6 H  s                39      0.173920   5 H  s         

 Vector    8  Occ=2.000000D+00  E=-1.279251D+00
              MO Center= -2.3D+00, -6.7D-02,  2.6D-01, r^2= 8.5D-01
   Bfn.  Coefficient  Atom+Function         Bfn.  Coefficient  Atom+Function  
  ----- ------------  ---------------      ----- ------------  ---------------
    74      0.433330  10 O  s                75      0.386080  10 O  s         
    92      0.188804  12 H  s                87      0.168081  11 H  s         

 Vector    9  Occ=2.000000D+00  E=-7.251032D-01
              MO Center=  1.6D+00,  1.4D+00,  7.9D-01, r^2= 1.5D+00
   Bfn.  Coefficient  Atom+Function         Bfn.  Coefficient  Atom+Function  
  ----- ------------  ---------------      ----- ------------  ---------------
     5      0.440866   1 O  py               20      0.321115   3 H  s         
    15     -0.300670   2 H  s                 8      0.208055   1 O  py        

 Vector   10  Occ=2.000000D+00  E=-7.117790D-01
              MO Center=  9.9D-01, -1.7D+00,  7.6D-02, r^2= 1.6D+00
   Bfn.  Coefficient  Atom+Function         Bfn.  Coefficient  Atom+Function  
  ----- ------------  ---------------      ----- ------------  ---------------
    53      0.398873   7 O  py               63     -0.320398   8 H  s         
    68      0.292264   9 H  s                54      0.235338   7 O  pz        
    56      0.191004   7 O  py        

 Vector   11  Occ=2.000000D+00  E=-6.771655D-01
              MO Center=  1.4D-02,  4.0D-01, -9.5D-01, r^2= 1.6D+00
   Bfn.  Coefficient  Atom+Function         Bfn.  Coefficient  Atom+Function  
  ----- ------------  ---------------      ----- ------------  ---------------
    29      0.428255   4 O  py               39      0.301122   5 H  s         
    44     -0.284013   6 H  s                32      0.206811   4 O  py        
    30      0.161927   4 O  pz        

 Vector   12  Occ=2.000000D+00  E=-6.563733D-01
              MO Center= -2.2D+00, -1.3D-02,  1.5D-01, r^2= 1.4D+00
   Bfn.  Coefficient  Atom+Function         Bfn.  Coefficient  Atom+Function  
  ----- ------------  ---------------      ----- ------------  ---------------
    76      0.406548  10 O  px               92     -0.305414  12 H  s         
    87      0.302067  11 H  s                78     -0.207853  10 O  pz        
    79      0.190766  10 O  px        

 Vector   13  Occ=2.000000D+00  E=-6.009935D-01
              MO Center=  9.9D-01,  8.3D-01,  3.1D-01, r^2= 3.2D+00
   Bfn.  Coefficient  Atom+Function         Bfn.  Coefficient  Atom+Function  
  ----- ------------  ---------------      ----- ------------  ---------------
     4      0.426035   1 O  px                7      0.282236   1 O  px        
     3     -0.265637   1 O  s                15      0.181959   2 H  s         
    54      0.175178   7 O  pz               27      0.170005   4 O  s         
    20      0.150966   3 H  s         

 Vector   14  Occ=2.000000D+00  E=-5.844529D-01
              MO Center=  1.1D+00, -1.0D+00,  4.3D-02, r^2= 3.0D+00
   Bfn.  Coefficient  Atom+Function         Bfn.  Coefficient  Atom+Function  
  ----- ------------  ---------------      ----- ------------  ---------------
    54     -0.302128   7 O  pz               51      0.286822   7 O  s         
    53      0.256343   7 O  py               52      0.251614   7 O  px        
     4      0.217905   1 O  px               57     -0.199395   7 O  pz        
    68     -0.180226   9 H  s                56      0.172258   7 O  py        
    55      0.171197   7 O  px               63     -0.166920   8 H  s         

 Vector   15  Occ=2.000000D+00  E=-5.583565D-01
              MO Center=  3.2D-02,  2.4D-01, -5.0D-01, r^2= 3.8D+00
   Bfn.  Coefficient  Atom+Function         Bfn.  Coefficient  Atom+Function  
  ----- ------------  ---------------      ----- ------------  ---------------
    28      0.346068   4 O  px               31      0.234996   4 O  px        
    27     -0.227407   4 O  s                52     -0.205922   7 O  px        
    30      0.191159   4 O  pz                6     -0.184181   1 O  pz        
    39      0.153298   5 H  s                55     -0.153707   7 O  px        

 Vector   16  Occ=2.000000D+00  E=-5.247668D-01
              MO Center= -9.2D-01,  3.1D-01,  4.2D-01, r^2= 4.8D+00
   Bfn.  Coefficient  Atom+Function         Bfn.  Coefficient  Atom+Function  
  ----- ------------  ---------------      ----- ------------  ---------------
     6      0.339784   1 O  pz               77     -0.322658  10 O  py        
     9      0.265209   1 O  pz               75      0.264217  10 O  s         
    78      0.231177  10 O  pz               80     -0.221805  10 O  py        
    92     -0.181240  12 H  s                81      0.164966  10 O  pz        

 Vector   17  Occ=2.000000D+00  E=-5.179429D-01
              MO Center=  6.7D-01,  4.3D-01,  3.0D-01, r^2= 4.6D+00
   Bfn.  Coefficient  Atom+Function         Bfn.  Coefficient  Atom+Function  
  ----- ------------  ---------------      ----- ------------  ---------------
     6      0.445143   1 O  pz                9      0.345019   1 O  pz        
    52     -0.251883   7 O  px               30      0.204643   4 O  pz        
    55     -0.198686   7 O  px               54     -0.156023   7 O  pz        
    77      0.154298  10 O  py               33      0.153099   4 O  pz        

 Vector   18  Occ=2.000000D+00  E=-5.071983D-01
              MO Center=  5.0D-01, -1.1D+00, -1.9D-01, r^2= 3.5D+00
   Bfn.  Coefficient  Atom+Function         Bfn.  Coefficient  Atom+Function  
  ----- ------------  ---------------      ----- ------------  ---------------
    52      0.412071   7 O  px               55      0.324425   7 O  px        
    54      0.297600   7 O  pz               57      0.229438   7 O  pz        
    28      0.166351   4 O  px               30      0.155685   4 O  pz        

 Vector   19  Occ=2.000000D+00  E=-4.669797D-01
              MO Center= -6.5D-01,  3.2D-01, -9.2D-01, r^2= 1.9D+00
   Bfn.  Coefficient  Atom+Function         Bfn.  Coefficient  Atom+Function  
  ----- ------------  ---------------      ----- ------------  ---------------
    30      0.434311   4 O  pz               33      0.350326   4 O  pz        
    28     -0.335206   4 O  px               31     -0.254127   4 O  px        
    78      0.243966  10 O  pz               81      0.179498  10 O  pz        

 Vector   20  Occ=2.000000D+00  E=-4.450911D-01
              MO Center= -2.3D+00, -1.9D-01,  3.8D-01, r^2= 7.4D-01
   Bfn.  Coefficient  Atom+Function         Bfn.  Coefficient  Atom+Function  
  ----- ------------  ---------------      ----- ------------  ---------------
    77      0.396689  10 O  py               78      0.386758  10 O  pz        
    80      0.319266  10 O  py               81      0.310856  10 O  pz        
    76      0.279513  10 O  px               79      0.225337  10 O  px        

 Vector   21  Occ=0.000000D+00  E= 1.497275D-01
              MO Center=  1.4D+00,  3.4D-01,  5.5D-01, r^2= 6.8D+00
   Bfn.  Coefficient  Atom+Function         Bfn.  Coefficient  Atom+Function  
  ----- ------------  ---------------      ----- ------------  ---------------
     3      0.748694   1 O  s                16     -0.625192   2 H  s         
    21     -0.568344   3 H  s                51      0.539422   7 O  s         
    64     -0.428140   8 H  s                69     -0.406224   9 H  s         
     7      0.224801   1 O  px               27      0.177588   4 O  s         

 Vector   22  Occ=0.000000D+00  E= 1.875286D-01
              MO Center=  1.2D+00, -6.0D-01,  4.3D-01, r^2= 9.5D+00
   Bfn.  Coefficient  Atom+Function         Bfn.  Coefficient  Atom+Function  
  ----- ------------  ---------------      ----- ------------  ---------------
    64      0.862960   8 H  s                21     -0.766844   3 H  s         
    51     -0.731440   7 O  s                 3      0.587444   1 O  s         
    69      0.352572   9 H  s                16     -0.232207   2 H  s         
    56      0.219122   7 O  py                8      0.172149   1 O  py        

 Vector   23  Occ=0.000000D+00  E= 2.297822D-01
              MO Center= -2.3D+00,  9.9D-02,  3.1D-01, r^2= 7.0D+00
   Bfn.  Coefficient  Atom+Function         Bfn.  Coefficient  Atom+Function  
  ----- ------------  ---------------      ----- ------------  ---------------
    93      1.235527  12 H  s                75     -0.785795  10 O  s         
    64     -0.559280   8 H  s                16     -0.409056   2 H  s         
    69      0.349998   9 H  s                79      0.291687  10 O  px        
    80     -0.250988  10 O  py               40      0.222159   5 H  s         
    56     -0.213066   7 O  py               27     -0.203799   4 O  s         

 Vector   24  Occ=0.000000D+00  E= 2.423910D-01
              MO Center=  2.0D+00,  1.2D+00,  7.2D-01, r^2= 6.0D+00
   Bfn.  Coefficient  Atom+Function         Bfn.  Coefficient  Atom+Function  
  ----- ------------  ---------------      ----- ------------  ---------------
    16      1.343014   2 H  s                21     -1.271034   3 H  s         
     8      0.562789   1 O  py               64     -0.541591   8 H  s         
     5      0.246528   1 O  py                7     -0.239141   1 O  px        
    69      0.193369   9 H  s                51      0.183906   7 O  s         
    56     -0.179820   7 O  py        

 Vector   25  Occ=0.000000D+00  E= 2.614191D-01
              MO Center=  2.7D-01, -1.3D+00,  6.0D-01, r^2= 5.9D+00
   Bfn.  Coefficient  Atom+Function         Bfn.  Coefficient  Atom+Function  
  ----- ------------  ---------------      ----- ------------  ---------------
    69      1.465824   9 H  s                64     -0.954659   8 H  s         
    93     -0.494833  12 H  s                57     -0.424488   7 O  pz        
    16     -0.402690   2 H  s                45     -0.387486   6 H  s         
    56     -0.371828   7 O  py               27      0.267764   4 O  s         
    75      0.237042  10 O  s                51     -0.216797   7 O  s         

 Vector   26  Occ=0.000000D+00  E= 3.012035D-01
              MO Center= -1.6D-01,  4.7D-02, -7.5D-01, r^2= 5.8D+00
   Bfn.  Coefficient  Atom+Function         Bfn.  Coefficient  Atom+Function  
  ----- ------------  ---------------      ----- ------------  ---------------
    27      1.001492   4 O  s                45     -0.956080   6 H  s         
    40     -0.647788   5 H  s                93      0.610565  12 H  s         
    64      0.378450   8 H  s                88     -0.320244  11 H  s         
    16      0.278797   2 H  s                79      0.236618  10 O  px        
    31      0.220893   4 O  px               56      0.206641   7 O  py        

 Vector   27  Occ=0.000000D+00  E= 3.702676D-01
              MO Center=  2.2D-01,  4.3D-01, -9.0D-01, r^2= 4.4D+00
   Bfn.  Coefficient  Atom+Function         Bfn.  Coefficient  Atom+Function  
  ----- ------------  ---------------      ----- ------------  ---------------
    40      1.697344   5 H  s                45     -1.623779   6 H  s         
    32     -0.633299   4 O  py               88      0.321714  11 H  s         
    21     -0.287972   3 H  s                29     -0.280908   4 O  py        
    33     -0.278826   4 O  pz               64      0.273297   8 H  s         
    56      0.221141   7 O  py               93     -0.190428  12 H  s         

 Vector   28  Occ=0.000000D+00  E= 4.252600D-01
              MO Center= -1.5D+00,  2.8D-01, -4.8D-01, r^2= 4.2D+00
   Bfn.  Coefficient  Atom+Function         Bfn.  Coefficient  Atom+Function  
  ----- ------------  ---------------      ----- ------------  ---------------
    88      2.122104  11 H  s                93     -0.881262  12 H  s         
    40     -0.803120   5 H  s                75     -0.630622  10 O  s         
    79     -0.534923  10 O  px               31      0.431743   4 O  px        
    81      0.397848  10 O  pz               45     -0.304429   6 H  s         
    28      0.242601   4 O  px               69     -0.206252   9 H  s         

 Vector   29  Occ=0.000000D+00  E= 7.251529D-01
              MO Center=  1.3D+00,  4.3D-01,  5.2D-01, r^2= 4.6D+00
   Bfn.  Coefficient  Atom+Function         Bfn.  Coefficient  Atom+Function  
  ----- ------------  ---------------      ----- ------------  ---------------
    15      0.781674   2 H  s                20     -0.705279   3 H  s         
    68      0.590272   9 H  s                16     -0.515225   2 H  s         
    63     -0.434597   8 H  s                21      0.428971   3 H  s         
     8      0.402090   1 O  py               69     -0.338774   9 H  s         
    44      0.289120   6 H  s                40      0.284018   5 H  s         

 Vector   30  Occ=0.000000D+00  E= 7.390032D-01
              MO Center=  3.0D-01, -3.0D-01, -6.7D-01, r^2= 3.8D+00
   Bfn.  Coefficient  Atom+Function         Bfn.  Coefficient  Atom+Function  
  ----- ------------  ---------------      ----- ------------  ---------------
    39      0.757747   5 H  s                45      0.714751   6 H  s         
    44     -0.707811   6 H  s                40     -0.660634   5 H  s         
    63     -0.555222   8 H  s                68      0.510863   9 H  s         
    69     -0.396288   9 H  s                56     -0.340929   7 O  py        
    64      0.326407   8 H  s                32     -0.262923   4 O  py        


 center of mass
 --------------
 x =  -0.02717228 y =  -0.00721483 z =  -0.01340436

 moments of inertia (a.u.)
 ------------------
         571.851025797513         -36.187177099638         -36.531063401907
         -36.187177099638         743.134450344505         -50.767013460769
         -36.531063401907         -50.767013460769         999.109227539752

  Mulliken analysis of the total density
  --------------------------------------

    Atom       Charge   Shell Charges
 -----------   ------   -------------------------------------------------------
    1 O    8     8.32   2.00  0.83  0.84  2.81  1.82  0.01
    2 H    1     0.82   0.66  0.07  0.08
    3 H    1     0.83   0.68  0.06  0.08
    4 O    8     8.37   2.00  0.83  0.84  2.83  1.86  0.01
    5 H    1     0.82   0.65  0.09  0.08
    6 H    1     0.82   0.65  0.08  0.08
    7 O    8     8.35   2.00  0.83  0.85  2.81  1.84  0.01
    8 H    1     0.82   0.67  0.06  0.08
    9 H    1     0.80   0.64  0.08  0.08
   10 O    8     8.40   2.00  0.83  0.84  2.82  1.89  0.01
   11 H    1     0.81   0.63  0.10  0.09
   12 H    1     0.85   0.69  0.08  0.08

       Multipole analysis of the density wrt the origin
       ------------------------------------------------

     L   x y z        total         open         nuclear
     -   - - -        -----         ----         -------
     0   0 0 0     -0.000000      0.000000     40.000000

     1   1 0 0      1.308323      0.000000      0.000000
     1   0 1 0      0.251963      0.000000     -0.000000
     1   0 0 1      0.495769      0.000000      0.000000

     2   2 0 0    -15.015793      0.000000    332.005632
     2   1 1 0      0.693078      0.000000     21.191075
     2   1 0 1      2.069694      0.000000     22.558993
     2   0 2 0     -9.761070      0.000000    240.074044
     2   0 1 1      1.668778      0.000000     29.404321
     2   0 0 2    -21.445474      0.000000     86.523152


 Parallel integral file used     120 records with       0 large values

                              NWChem Gradients Module
                              -----------------------



  wavefunction    =   RHF     



                         RHF ENERGY GRADIENTS

    atom               coordinates                        gradient
                 x          y          z           x          y          z
   1 O       2.661273   2.938109   1.593807   -0.036773   0.003314   0.005121
   2 H       4.219994   1.980270   1.241593    0.030835  -0.021738  -0.008451
   3 H       3.199199   4.647978   1.928063    0.003882   0.019062   0.003652
   4 O      -0.546923   0.882592  -2.393176   -0.029113   0.005496  -0.010672
   5 H       0.499451   1.934538  -1.300658    0.015867   0.012724   0.012758
   6 H       0.306638  -0.744159  -2.300060    0.011227  -0.019443   0.001846
   7 O       2.092745  -3.478708  -0.120657    0.021917   0.000629  -0.034856
   8 H       1.824153  -5.278975  -0.228918   -0.000502  -0.020033  -0.003756
   9 H       1.172092  -2.907860   1.418654   -0.019959   0.017598   0.037978
  10 O      -4.453877  -0.407518   0.798286    0.000992  -0.018640   0.017933
  11 H      -3.324255   0.222864  -0.540225    0.019473   0.009563  -0.022555
  12 H      -5.923015   0.669552   0.755472   -0.017845   0.011470   0.001002

                 ----------------------------------------
                 |  Time  |  1-e(secs)   |  2-e(secs)   |
                 ----------------------------------------
                 |  CPU   |       0.02   |       1.50   |
                 ----------------------------------------
                 |  WALL  |       0.02   |       1.51   |
                 ----------------------------------------

 Task  times  cpu:        4.4s     wall:        4.4s


                                NWChem Input Module
                                -------------------


 Summary of allocated global arrays
-----------------------------------
  No active global arrays



                         GA Statistics for process    0
                         ------------------------------

       create   destroy   get      put      acc     scatter   gather  read&inc
calls:  268      268     1.11e+04 5689     4684        0        0      166     
number of processes/call 0.00e+00 0.00e+00 0.00e+00 0.00e+00 0.00e+00
bytes total:             2.58e+07 1.54e+07 3.80e+06 0.00e+00 0.00e+00 1.33e+03
bytes remote:            0.00e+00 0.00e+00 0.00e+00 0.00e+00 0.00e+00 0.00e+00
Max memory consumed for GA by this process: 958464 bytes

MA_summarize_allocated_blocks: starting scan ...
MA_summarize_allocated_blocks: scan completed: 0 heap blocks, 0 stack blocks
MA usage statistics:

	allocation statistics:
					      heap	     stack
					      ----	     -----
	current number of blocks	         0	         0
	maximum number of blocks	        18	        28
	current total bytes		         0	         0
	maximum total bytes		 177770848	  26178728
	maximum total K-bytes		    177771	     26179
	maximum total M-bytes		       178	        27


                                     CITATION
                                     --------
                Please cite the following reference when publishing
                           results obtained with NWChem:

          E. Aprà, E. J. Bylaska, W. A. de Jong, N. Govind, K. Kowalski,
       T. P. Straatsma, M. Valiev, H. J. J. van Dam, Y. Alexeev, J. Anchell,
       V. Anisimov, F. W. Aquino, R. Atta-Fynn, J. Autschbach, N. P. Bauman,
     J. C. Becca, D. E. Bernholdt, K. Bhaskaran-Nair, S. Bogatko, P. Borowski,
        J. Boschen, J. Brabec, A. Bruner, E. Cauët, Y. Chen, G. N. Chuev,
      C. J. Cramer, J. Daily, M. J. O. Deegan, T. H. Dunning Jr., M. Dupuis,
   K. G. Dyall, G. I. Fann, S. A. Fischer, A. Fonari, H. Früchtl, L. Gagliardi,
      J. Garza, N. Gawande, S. Ghosh, K. Glaesemann, A. W. Götz, J. Hammond,
       V. Helms, E. D. Hermes, K. Hirao, S. Hirata, M. Jacquelin, L. Jensen,
   B. G. Johnson, H. Jónsson, R. A. Kendall, M. Klemm, R. Kobayashi, V. Konkov,
      S. Krishnamoorthy, M. Krishnan, Z. Lin, R. D. Lins, R. J. Littlefield,
      A. J. Logsdail, K. Lopata, W. Ma, A. V. Marenich, J. Martin del Campo,
   D. Mejia-Rodriguez, J. E. Moore, J. M. Mullin, T. Nakajima, D. R. Nascimento,
    J. A. Nichols, P. J. Nichols, J. Nieplocha, A. Otero-de-la-Roza, B. Palmer,
    A. Panyala, T. Pirojsirikul, B. Peng, R. Peverati, J. Pittner, L. Pollack,
   R. M. Richard, P. Sadayappan, G. C. Schatz, W. A. Shelton, D. W. Silverstein,
   D. M. A. Smith, T. A. Soares, D. Song, M. Swart, H. L. Taylor, G. S. Thomas,
            V. Tipparaju, D. G. Truhlar, K. Tsemekhman, T. Van Voorhis,
     Á. Vázquez-Mayagoitia, P. Verma, O. Villa, A. Vishnu, K. D. Vogiatzis,
        D. Wang, J. H. Weare, M. J. Williamson, T. L. Windus, K. Woliński,
        A. T. Wong, Q. Wu, C. Yang, Q. Yu, M. Zacharias, Z. Zhang, Y. Zhao,
                                and R. J. Harrison
                        "NWChem: Past, present, and future
                         J. Chem. Phys. 152, 184102 (2020)
                               doi:10.1063/5.0004997

                                      AUTHORS
                                      -------
     E. Apra, E. J. Bylaska, N. Govind, K. Kowalski, M. Valiev, W. A. de Jong,
      T. P. Straatsma, H. J. J. van Dam, D. Wang, T. L. Windus, N. P. Bauman,
       A. Panyala, J. Hammond, J. Autschbach, K. Bhaskaran-Nair, J. Brabec,
    K. Lopata, S. A. Fischer, S. Krishnamoorthy, M. Jacquelin, W. Ma, M. Klemm,
       O. Villa, Y. Chen, V. Anisimov, F. Aquino, S. Hirata, M. T. Hackler,
           Eric Hermes, L. Jensen, J. E. Moore, J. C. Becca, V. Konjkov,
            D. Mejia-Rodriguez, T. Risthaus, M. Malagoli, A. Marenich,
   A. Otero-de-la-Roza, J. Mullin, P. Nichols, R. Peverati, J. Pittner, Y. Zhao,
        P.-D. Fan, A. Fonari, M. J. Williamson, R. J. Harrison, J. R. Rehr,
      M. Dupuis, D. Silverstein, D. M. A. Smith, J. Nieplocha, V. Tipparaju,
      M. Krishnan, B. E. Van Kuiken, A. Vazquez-Mayagoitia, M. Swart, Q. Wu,
   T. Van Voorhis, A. A. Auer, M. Nooijen, L. D. Crosby, E. Brown, G. Cisneros,
     G. I. Fann, H. Fruchtl, J. Garza, K. Hirao, R. A. Kendall, J. A. Nichols,
       K. Tsemekhman, K. Wolinski, J. Anchell, D. E. Bernholdt, P. Borowski,
       T. Clark, D. Clerc, H. Dachsel, M. J. O. Deegan, K. Dyall, D. Elwood,
      E. Glendening, M. Gutowski, A. C. Hess, J. Jaffe, B. G. Johnson, J. Ju,
        R. Kobayashi, R. Kutteh, Z. Lin, R. Littlefield, X. Long, B. Meng,
      T. Nakajima, S. Niu, L. Pollack, M. Rosing, K. Glaesemann, G. Sandrone,
      M. Stave, H. Taylor, G. Thomas, J. H. van Lenthe, A. T. Wong, Z. Zhang.

 Total times  cpu:        4.4s     wall:        4.4s
