 argument  1 = nwchem/input_3_11_at_worker_2_1.nw



============================== echo of input deck ==============================
echo
memory 1000 mb
geometry noautosym noautoz
O -0.82054445 0.61636011 -1.6312343
H -0.26682713 1.17302621 -1.05309865
H -0.36885969 -0.24447946 -1.58195952
O -0.64071556 -0.48854013 1.6410419
H -0.19915392 0.37247798 1.5285638
H -1.54433112 -0.32408724 1.298356
O 0.57630762 -1.69154092 -0.42866929
H 0.43417462 -2.64420081 -0.48595869
H 0.08911917 -1.3894609 0.38589939
end
basis spherical
 * library cc-pvdz
end
task scf gradient
================================================================================


                                         
                                         


             Northwest Computational Chemistry Package (NWChem) 7.0.2
             --------------------------------------------------------


                    Environmental Molecular Sciences Laboratory
                       Pacific Northwest National Laboratory
                                Richland, WA 99352

                              Copyright (c) 1994-2020
                       Pacific Northwest National Laboratory
                            Battelle Memorial Institute

             NWChem is an open-source computational chemistry package
                        distributed under the terms of the
                      Educational Community License (ECL) 2.0
             A copy of the license is included with this distribution
                              in the LICENSE.TXT file

                                  ACKNOWLEDGMENT
                                  --------------

            This software and its documentation were developed at the
            EMSL at Pacific Northwest National Laboratory, a multiprogram
            national laboratory, operated for the U.S. Department of Energy
            by Battelle under Contract Number DE-AC05-76RL01830. Support
            for this work was provided by the Department of Energy Office
            of Biological and Environmental Research, Office of Basic
            Energy Sciences, and the Office of Advanced Scientific Computing.


           Job information
           ---------------

    hostname        = pop-os
    program         = nwchem
    date            = Thu Jul  8 18:22:23 2021

    compiled        = Wed_Jan_06_19:48:08_2021
    source          = /build/nwchem-ksKH2r/nwchem-7.0.2
    nwchem branch   = 7.0.2
    nwchem revision = N/A
    ga revision     = 5.7.1
    use scalapack   = T
    input           = nwchem/input_3_11_at_worker_2_1.nw
    prefix          = input_3_11_at_worker_2_1.
    data base       = ./input_3_11_at_worker_2_1.db
    status          = startup
    nproc           =        1
    time left       =     -1s



           Memory information
           ------------------

    heap     =   32768000 doubles =    250.0 Mbytes
    stack    =   32767997 doubles =    250.0 Mbytes
    global   =   65536000 doubles =    500.0 Mbytes (distinct from heap & stack)
    total    =  131071997 doubles =   1000.0 Mbytes
    verify   = yes
    hardfail = no 


           Directory information
           ---------------------

  0 permanent = .
  0 scratch   = .




                                NWChem Input Module
                                -------------------



 Scaling coordinates for geometry "geometry" by  1.889725989
 (inverse scale =  0.529177249)



                             Geometry "geometry" -> ""
                             -------------------------

 Output coordinates in angstroms (scale by  1.889725989 to convert to a.u.)

  No.       Tag          Charge          X              Y              Z
 ---- ---------------- ---------- -------------- -------------- --------------
    1 O                    8.0000    -0.52269454     1.13524317    -1.52259793
    2 H                    1.0000     0.03102278     1.69190927    -0.94446228
    3 H                    1.0000    -0.07100978     0.27440360    -1.47332315
    4 O                    8.0000    -0.34286565     0.03034293     1.74967827
    5 H                    1.0000     0.09869599     0.89136104     1.63720017
    6 H                    1.0000    -1.24648121     0.19479582     1.40699237
    7 O                    8.0000     0.87415753    -1.17265786    -0.32003292
    8 H                    1.0000     0.73202453    -2.12531775    -0.37732232
    9 H                    1.0000     0.38696908    -0.87057784     0.49453576

      Atomic Mass 
      ----------- 

      O                 15.994910
      H                  1.007825


 Effective nuclear repulsion energy (a.u.)      81.0152016206

            Nuclear Dipole moment (a.u.) 
            ----------------------------
        X                 Y               Z
 ---------------- ---------------- ----------------
     0.0000000000     0.0000000000     0.0000000000


            XYZ format geometry
            -------------------
     9
 geometry
 O                    -0.52269454     1.13524317    -1.52259793
 H                     0.03102278     1.69190927    -0.94446228
 H                    -0.07100978     0.27440360    -1.47332315
 O                    -0.34286565     0.03034293     1.74967827
 H                     0.09869599     0.89136104     1.63720017
 H                    -1.24648121     0.19479582     1.40699237
 O                     0.87415753    -1.17265786    -0.32003292
 H                     0.73202453    -2.12531775    -0.37732232
 H                     0.38696908    -0.87057784     0.49453576

 ==============================================================================
                                internuclear distances
 ------------------------------------------------------------------------------
       center one      |      center two      | atomic units |  angstroms
 ------------------------------------------------------------------------------
    2 H                |   1 O                |     1.84258  |     0.97505
    3 H                |   1 O                |     1.83944  |     0.97339
    5 H                |   4 O                |     1.84089  |     0.97416
    6 H                |   4 O                |     1.85251  |     0.98031
    8 H                |   7 O                |     1.82341  |     0.96491
    9 H                |   7 O                |     1.88227  |     0.99606
 ------------------------------------------------------------------------------
                         number of included internuclear distances:          6
 ==============================================================================



 ==============================================================================
                                 internuclear angles
 ------------------------------------------------------------------------------
        center 1       |       center 2       |       center 3       |  degrees
 ------------------------------------------------------------------------------
    2 H                |   1 O                |   3 H                |   102.20
    5 H                |   4 O                |   6 H                |   103.25
    8 H                |   7 O                |   9 H                |   106.02
 ------------------------------------------------------------------------------
                            number of included internuclear angles:          3
 ==============================================================================





 Summary of "ao basis" -> "" (spherical)
 ------------------------------------------------------------------------------
       Tag                 Description            Shells   Functions and Types
 ---------------- ------------------------------  ------  ---------------------
 *                          cc-pvdz                   on all atoms 


                      Basis "ao basis" -> "ao basis" (spherical)
                      -----
  O (Oxygen)
  ----------
            Exponent  Coefficients 
       -------------- ---------------------------------------------------------
  1 S  1.17200000E+04  0.000710
  1 S  1.75900000E+03  0.005470
  1 S  4.00800000E+02  0.027837
  1 S  1.13700000E+02  0.104800
  1 S  3.70300000E+01  0.283062
  1 S  1.32700000E+01  0.448719
  1 S  5.02500000E+00  0.270952
  1 S  1.01300000E+00  0.015458

  2 S  1.17200000E+04 -0.000160
  2 S  1.75900000E+03 -0.001263
  2 S  4.00800000E+02 -0.006267
  2 S  1.13700000E+02 -0.025716
  2 S  3.70300000E+01 -0.070924
  2 S  1.32700000E+01 -0.165411
  2 S  5.02500000E+00 -0.116955
  2 S  1.01300000E+00  0.557368

  3 S  3.02300000E-01  1.000000

  4 P  1.77000000E+01  0.043018
  4 P  3.85400000E+00  0.228913
  4 P  1.04600000E+00  0.508728

  5 P  2.75300000E-01  1.000000

  6 D  1.18500000E+00  1.000000

  H (Hydrogen)
  ------------
            Exponent  Coefficients 
       -------------- ---------------------------------------------------------
  1 S  1.30100000E+01  0.019685
  1 S  1.96200000E+00  0.137977
  1 S  4.44600000E-01  0.478148

  2 S  1.22000000E-01  1.000000

  3 P  7.27000000E-01  1.000000



 Summary of "ao basis" -> "ao basis" (spherical)
 ------------------------------------------------------------------------------
       Tag                 Description            Shells   Functions and Types
 ---------------- ------------------------------  ------  ---------------------
 O                          cc-pvdz                  6       14   3s2p1d
 H                          cc-pvdz                  3        5   2s1p


                                 NWChem SCF Module
                                 -----------------



  ao basis        = "ao basis"
  functions       =    72
  atoms           =     9
  closed shells   =    15
  open shells     =     0
  charge          =   0.00
  wavefunction    = RHF 
  input vectors   = atomic
  output vectors  = ./input_3_11_at_worker_2_1.movecs
  use symmetry    = F
  symmetry adapt  = F


 Summary of "ao basis" -> "ao basis" (spherical)
 ------------------------------------------------------------------------------
       Tag                 Description            Shells   Functions and Types
 ---------------- ------------------------------  ------  ---------------------
 O                          cc-pvdz                  6       14   3s2p1d
 H                          cc-pvdz                  3        5   2s1p



 Forming initial guess at       0.0s


      Superposition of Atomic Density Guess
      -------------------------------------

 Sum of atomic energies:        -227.28668731

      Non-variational initial energy
      ------------------------------

 Total energy =    -227.788492
 1-e energy   =    -472.380507
 2-e energy   =     163.576814
 HOMO         =      -0.459347
 LUMO         =       0.046325


 Starting SCF solution at       0.2s



 ----------------------------------------------
         Quadratically convergent ROHF

 Convergence threshold     :          1.000E-04
 Maximum no. of iterations :           30
 Final Fock-matrix accuracy:          1.000E-07
 ----------------------------------------------


 Integral file          = ./input_3_11_at_worker_2_1.aoints.0
 Record size in doubles =  65536        No. of integs per rec  =  43688
 Max. records in memory =    110        Max. records in file   = 400190
 No. of bits per label  =      8        No. of bits per value  =     64


 #quartets = 1.891D+05 #integrals = 2.506D+06 #direct =  0.0% #cached =100.0%


              iter       energy          gnorm     gmax       time
             ----- ------------------- --------- --------- --------
                 1     -228.0012002886  1.34D+00  2.37D-01      0.7
                 2     -228.0859492593  2.94D-01  7.80D-02      0.8
                 3     -228.0929181400  2.50D-02  4.64D-03      1.0
                 4     -228.0929746576  4.85D-04  1.10D-04      1.2
                 5     -228.0929746760  2.29D-06  5.34D-07      1.3


       Final RHF  results 
       ------------------ 

         Total SCF energy =   -228.092974675982
      One-electron energy =   -476.171952607263
      Two-electron energy =    167.063776310638
 Nuclear repulsion energy =     81.015201620643

        Time for solution =      1.1s


             Final eigenvalues
             -----------------

              1      
    1  -20.6040
    2  -20.5405
    3  -20.5365
    4   -1.3813
    5   -1.3204
    6   -1.3111
    7   -0.7347
    8   -0.7013
    9   -0.6719
   10   -0.6183
   11   -0.5719
   12   -0.5526
   13   -0.5190
   14   -0.4844
   15   -0.4743
   16    0.1419
   17    0.2113
   18    0.2187
   19    0.2589
   20    0.3403
   21    0.3940
   22    0.7230
   23    0.7511
   24    0.7864
   25    0.8206

                       ROHF Final Molecular Orbital Analysis
                       -------------------------------------

 Vector    4  Occ=2.000000D+00  E=-1.381275D+00
              MO Center= -3.7D-01,  1.3D-01,  1.6D+00, r^2= 6.6D-01
   Bfn.  Coefficient  Atom+Function         Bfn.  Coefficient  Atom+Function  
  ----- ------------  ---------------      ----- ------------  ---------------
    26      0.440335  4 O  s                 27      0.389073  4 O  s          
    39      0.182125  5 H  s                 44      0.177384  6 H  s          

 Vector    5  Occ=2.000000D+00  E=-1.320407D+00
              MO Center=  4.0D-01, -5.1D-01, -5.7D-01, r^2= 2.4D+00
   Bfn.  Coefficient  Atom+Function         Bfn.  Coefficient  Atom+Function  
  ----- ------------  ---------------      ----- ------------  ---------------
    50      0.362593  7 O  s                 51      0.326601  7 O  s          
     2      0.245199  1 O  s                  3      0.210945  1 O  s          
    63      0.154724  8 H  s          

 Vector    6  Occ=2.000000D+00  E=-1.311087D+00
              MO Center= -2.5D-02,  3.7D-01, -1.0D+00, r^2= 2.4D+00
   Bfn.  Coefficient  Atom+Function         Bfn.  Coefficient  Atom+Function  
  ----- ------------  ---------------      ----- ------------  ---------------
     2      0.369305  1 O  s                  3      0.328019  1 O  s          
    50     -0.246906  7 O  s                 51     -0.223882  7 O  s          
    15      0.158013  2 H  s          

 Vector    7  Occ=2.000000D+00  E=-7.347268D-01
              MO Center= -4.2D-01,  2.1D-01,  1.7D+00, r^2= 8.0D-01
   Bfn.  Coefficient  Atom+Function         Bfn.  Coefficient  Atom+Function  
  ----- ------------  ---------------      ----- ------------  ---------------
    28      0.435190  4 O  px                39      0.317025  5 H  s          
    44     -0.316026  6 H  s                 29      0.223353  4 O  py         
    31      0.210256  4 O  px         

 Vector    8  Occ=2.000000D+00  E=-7.012818D-01
              MO Center=  5.9D-01, -1.1D+00,  4.0D-02, r^2= 1.7D+00
   Bfn.  Coefficient  Atom+Function         Bfn.  Coefficient  Atom+Function  
  ----- ------------  ---------------      ----- ------------  ---------------
    53      0.353655  7 O  py                63     -0.292677  8 H  s          
    68      0.289586  9 H  s                 54      0.243392  7 O  pz         
    56      0.165937  7 O  py                29     -0.160194  4 O  py         

 Vector    9  Occ=2.000000D+00  E=-6.719315D-01
              MO Center= -3.0D-01,  1.0D+00, -1.3D+00, r^2= 1.1D+00
   Bfn.  Coefficient  Atom+Function         Bfn.  Coefficient  Atom+Function  
  ----- ------------  ---------------      ----- ------------  ---------------
     5      0.450072  1 O  py                15      0.313833  2 H  s          
    20     -0.309445  3 H  s                  8      0.214422  1 O  py         
     6      0.161017  1 O  pz         

 Vector   10  Occ=2.000000D+00  E=-6.182753D-01
              MO Center= -1.9D-01, -1.4D-01,  1.4D+00, r^2= 1.7D+00
   Bfn.  Coefficient  Atom+Function         Bfn.  Coefficient  Atom+Function  
  ----- ------------  ---------------      ----- ------------  ---------------
    29      0.420604  4 O  py                27     -0.310701  4 O  s          
    32      0.274491  4 O  py                28     -0.199438  4 O  px         
    44      0.196622  6 H  s                 30     -0.194166  4 O  pz         
    39      0.182709  5 H  s                 53      0.177751  7 O  py         

 Vector   11  Occ=2.000000D+00  E=-5.718752D-01
              MO Center=  2.6D-01, -3.7D-01,  1.6D-02, r^2= 3.4D+00
   Bfn.  Coefficient  Atom+Function         Bfn.  Coefficient  Atom+Function  
  ----- ------------  ---------------      ----- ------------  ---------------
    30      0.310927  4 O  pz                53      0.256129  7 O  py         
    51      0.241044  7 O  s                 33      0.235199  4 O  pz         
    54     -0.233167  7 O  pz                 4      0.196430  1 O  px         
    52      0.176257  7 O  px                63     -0.171325  8 H  s          
    56      0.169766  7 O  py                57     -0.167358  7 O  pz         

 Vector   12  Occ=2.000000D+00  E=-5.525648D-01
              MO Center= -3.3D-01,  6.8D-01, -9.0D-01, r^2= 3.0D+00
   Bfn.  Coefficient  Atom+Function         Bfn.  Coefficient  Atom+Function  
  ----- ------------  ---------------      ----- ------------  ---------------
     4      0.374496  1 O  px                 3     -0.278812  1 O  s          
     7      0.252789  1 O  px                 6      0.240162  1 O  pz         
    30     -0.217332  4 O  pz                15      0.177748  2 H  s          
    20      0.173149  3 H  s                 33     -0.172037  4 O  pz         
     9      0.162089  1 O  pz         

 Vector   13  Occ=2.000000D+00  E=-5.190390D-01
              MO Center=  1.2D-01, -3.6D-01,  7.8D-01, r^2= 2.7D+00
   Bfn.  Coefficient  Atom+Function         Bfn.  Coefficient  Atom+Function  
  ----- ------------  ---------------      ----- ------------  ---------------
    30      0.426762  4 O  pz                33      0.337254  4 O  pz         
    54      0.281206  7 O  pz                52     -0.226120  7 O  px         
    57      0.191116  7 O  pz                29      0.170289  4 O  py         
    55     -0.161621  7 O  px                28     -0.159531  4 O  px         
    68      0.159062  9 H  s          

 Vector   14  Occ=2.000000D+00  E=-4.843548D-01
              MO Center=  4.4D-01, -4.9D-01, -6.5D-01, r^2= 2.5D+00
   Bfn.  Coefficient  Atom+Function         Bfn.  Coefficient  Atom+Function  
  ----- ------------  ---------------      ----- ------------  ---------------
    52      0.426586  7 O  px                55      0.346744  7 O  px         
    54      0.287279  7 O  pz                 4      0.261577  1 O  px         
    57      0.224067  7 O  pz                 6     -0.216343  1 O  pz         
     7      0.200076  1 O  px                 9     -0.179664  1 O  pz         

 Vector   15  Occ=2.000000D+00  E=-4.743442D-01
              MO Center= -1.5D-01,  5.4D-01, -1.2D+00, r^2= 2.3D+00
   Bfn.  Coefficient  Atom+Function         Bfn.  Coefficient  Atom+Function  
  ----- ------------  ---------------      ----- ------------  ---------------
     6      0.443698  1 O  pz                 9      0.349133  1 O  pz         
    52      0.260329  7 O  px                 4     -0.254601  1 O  px         
    55      0.206019  7 O  px                 7     -0.203283  1 O  px         
     5     -0.183440  1 O  py                54      0.175577  7 O  pz         

 Vector   16  Occ=0.000000D+00  E= 1.418590D-01
              MO Center= -2.0D-01,  7.5D-01,  7.9D-01, r^2= 4.6D+00
   Bfn.  Coefficient  Atom+Function         Bfn.  Coefficient  Atom+Function  
  ----- ------------  ---------------      ----- ------------  ---------------
    40     -0.752981  5 H  s                 27      0.740251  4 O  s          
    16     -0.529099  2 H  s                 45     -0.509015  6 H  s          
    64     -0.375245  8 H  s                  3      0.356574  1 O  s          
    32      0.266645  4 O  py                51      0.240502  7 O  s          

 Vector   17  Occ=0.000000D+00  E= 2.113050D-01
              MO Center=  2.7D-01, -9.1D-01,  5.1D-02, r^2= 6.5D+00
   Bfn.  Coefficient  Atom+Function         Bfn.  Coefficient  Atom+Function  
  ----- ------------  ---------------      ----- ------------  ---------------
    64      1.068049  8 H  s                 40     -0.718752  5 H  s          
    45      0.673261  6 H  s                 51     -0.665650  7 O  s          
    16     -0.539075  2 H  s                 56      0.308242  7 O  py         
    21      0.281051  3 H  s                 31      0.277239  4 O  px         
     8      0.189411  1 O  py                32      0.179693  4 O  py         

 Vector   18  Occ=0.000000D+00  E= 2.186761D-01
              MO Center= -6.6D-01, -2.4D-01,  5.1D-01, r^2= 6.3D+00
   Bfn.  Coefficient  Atom+Function         Bfn.  Coefficient  Atom+Function  
  ----- ------------  ---------------      ----- ------------  ---------------
    45      1.232487  6 H  s                 64     -0.742115  8 H  s          
    16     -0.524893  2 H  s                 27     -0.521153  4 O  s          
    51      0.459690  7 O  s                 31      0.409479  4 O  px         
     3      0.373748  1 O  s                 40     -0.330498  5 H  s          
    56     -0.229061  7 O  py                28      0.202756  4 O  px         

 Vector   19  Occ=0.000000D+00  E= 2.589252D-01
              MO Center=  1.4D-01,  1.2D+00,  1.6D-01, r^2= 5.3D+00
   Bfn.  Coefficient  Atom+Function         Bfn.  Coefficient  Atom+Function  
  ----- ------------  ---------------      ----- ------------  ---------------
    40      1.198482  5 H  s                 16     -1.009712  2 H  s          
     3      0.777879  1 O  s                 45     -0.550745  6 H  s          
    27     -0.380457  4 O  s                 64      0.314092  8 H  s          
    21     -0.312123  3 H  s                 31     -0.299938  4 O  px         
    32     -0.290686  4 O  py                 7      0.230335  1 O  px         

 Vector   20  Occ=0.000000D+00  E= 3.403424D-01
              MO Center=  5.1D-02,  5.0D-02, -1.3D+00, r^2= 4.2D+00
   Bfn.  Coefficient  Atom+Function         Bfn.  Coefficient  Atom+Function  
  ----- ------------  ---------------      ----- ------------  ---------------
    21      1.728061  3 H  s                 16     -1.018241  2 H  s          
    64     -0.618228  8 H  s                  8      0.595199  1 O  py         
     3     -0.415574  1 O  s                 56     -0.368940  7 O  py         
    40      0.340369  5 H  s                 45     -0.322485  6 H  s          
    69      0.316536  9 H  s                  5      0.257669  1 O  py         

 Vector   21  Occ=0.000000D+00  E= 3.939659D-01
              MO Center=  3.5D-01, -9.0D-01,  5.2D-01, r^2= 3.6D+00
   Bfn.  Coefficient  Atom+Function         Bfn.  Coefficient  Atom+Function  
  ----- ------------  ---------------      ----- ------------  ---------------
    69      2.269827  9 H  s                 64     -0.828604  8 H  s          
    21     -0.670560  3 H  s                 51     -0.644247  7 O  s          
    57     -0.539999  7 O  pz                40     -0.448164  5 H  s          
    56     -0.340388  7 O  py                45     -0.322499  6 H  s          
    32      0.294415  4 O  py                16      0.249408  2 H  s          

 Vector   22  Occ=0.000000D+00  E= 7.230338D-01
              MO Center= -3.6D-01,  1.4D-01,  1.3D+00, r^2= 2.7D+00
   Bfn.  Coefficient  Atom+Function         Bfn.  Coefficient  Atom+Function  
  ----- ------------  ---------------      ----- ------------  ---------------
    44     -0.923917  6 H  s                 39      0.840855  5 H  s          
    45      0.695627  6 H  s                 40     -0.597697  5 H  s          
    31     -0.360639  4 O  px                63     -0.360813  8 H  s          
    69     -0.280304  9 H  s                 68      0.235056  9 H  s          
    32     -0.222166  4 O  py                64      0.220979  8 H  s          

 Vector   23  Occ=0.000000D+00  E= 7.510562D-01
              MO Center=  1.2D-01,  4.8D-02, -4.1D-01, r^2= 4.0D+00
   Bfn.  Coefficient  Atom+Function         Bfn.  Coefficient  Atom+Function  
  ----- ------------  ---------------      ----- ------------  ---------------
    69      0.854330  9 H  s                 68     -0.772414  9 H  s          
    21     -0.716948  3 H  s                 15     -0.652990  2 H  s          
    20      0.577259  3 H  s                 16      0.534055  2 H  s          
    40     -0.467903  5 H  s                 39      0.415468  5 H  s          
    63      0.398585  8 H  s                 64     -0.324878  8 H  s          

 Vector   24  Occ=0.000000D+00  E= 7.864218D-01
              MO Center= -1.7D-02,  1.2D-01,  2.1D-01, r^2= 3.9D+00
   Bfn.  Coefficient  Atom+Function         Bfn.  Coefficient  Atom+Function  
  ----- ------------  ---------------      ----- ------------  ---------------
    69      0.946342  9 H  s                 68     -0.702553  9 H  s          
    15      0.651794  2 H  s                 39      0.485176  5 H  s          
    44      0.471656  6 H  s                 16     -0.411987  2 H  s          
    20     -0.381116  3 H  s                 45     -0.355165  6 H  s          
    40     -0.295669  5 H  s                 51     -0.285028  7 O  s          

 Vector   25  Occ=0.000000D+00  E= 8.205568D-01
              MO Center= -5.8D-02, -3.3D-01,  2.3D-02, r^2= 4.7D+00
   Bfn.  Coefficient  Atom+Function         Bfn.  Coefficient  Atom+Function  
  ----- ------------  ---------------      ----- ------------  ---------------
    63     -0.692432  8 H  s                 20      0.645525  3 H  s          
    44      0.584167  6 H  s                 64      0.570519  8 H  s          
    21     -0.475082  3 H  s                 68      0.439799  9 H  s          
    45     -0.413905  6 H  s                 16      0.380507  2 H  s          
    39      0.381322  5 H  s                 69     -0.297190  9 H  s          


 center of mass
 --------------
 x =   0.00238514 y =  -0.00196190 z =  -0.02578763

 moments of inertia (a.u.)
 ------------------
         527.047364337201         100.289530093040          10.548429711318
         100.289530093040         416.365379892416          73.896015162811
          10.548429711318          73.896015162811         258.848532051105

  Mulliken analysis of the total density
  --------------------------------------

    Atom       Charge   Shell Charges
 -----------   ------   -------------------------------------------------------
    1 O    8     8.36   2.00  0.83  0.84  2.81  1.86  0.01
    2 H    1     0.86   0.69  0.09  0.08
    3 H    1     0.82   0.65  0.09  0.09
    4 O    8     8.32   2.00  0.84  0.84  2.82  1.81  0.01
    5 H    1     0.82   0.67  0.07  0.08
    6 H    1     0.81   0.66  0.07  0.08
    7 O    8     8.39   2.00  0.83  0.85  2.83  1.88  0.01
    8 H    1     0.84   0.68  0.07  0.08
    9 H    1     0.79   0.62  0.09  0.09

       Multipole analysis of the density wrt the origin
       ------------------------------------------------

     L   x y z        total         open         nuclear
     -   - - -        -----         ----         -------
     0   0 0 0     -0.000000      0.000000     30.000000

     1   1 0 0     -0.147775      0.000000      0.000000
     1   0 1 0      0.026772      0.000000      0.000000
     1   0 0 1      0.900220      0.000000      0.000000

     2   2 0 0    -15.064002      0.000000     41.047273
     2   1 1 0      1.947521      0.000000    -53.728512
     2   1 0 1     -1.851225      0.000000     -8.114187
     2   0 2 0     -9.901988      0.000000    108.431080
     2   0 1 1      3.955837      0.000000    -36.776729
     2   0 0 2    -18.631539      0.000000    185.575629


 Parallel integral file used      58 records with       0 large values

                              NWChem Gradients Module
                              -----------------------



  wavefunction    =   RHF     



                         RHF ENERGY GRADIENTS

    atom               coordinates                        gradient
                 x          y          z           x          y          z
   1 O      -0.987749   2.145299  -2.877293   -0.026760   0.003262  -0.022918
   2 H       0.058625   3.197245  -1.784775    0.016294   0.015884   0.020966
   3 H      -0.134189   0.518548  -2.784177    0.009681  -0.018466   0.000699
   4 O      -0.647922   0.057340   3.306413    0.022839  -0.034757   0.010741
   5 H       0.186508   1.684428   3.093860    0.011866   0.023887  -0.005557
   6 H      -2.355508   0.368111   2.658830   -0.028589   0.004912  -0.011272
   7 O       1.651918  -2.216002  -0.604775    0.020151   0.008874  -0.022505
   8 H       1.383326  -4.016268  -0.713036   -0.002685  -0.020709  -0.002114
   9 H       0.731266  -1.645154   0.934537   -0.022797   0.017114   0.031961

                 ----------------------------------------
                 |  Time  |  1-e(secs)   |  2-e(secs)   |
                 ----------------------------------------
                 |  CPU   |       0.01   |       0.67   |
                 ----------------------------------------
                 |  WALL  |       0.01   |       0.67   |
                 ----------------------------------------

 Task  times  cpu:        2.0s     wall:        2.0s


                                NWChem Input Module
                                -------------------


 Summary of allocated global arrays
-----------------------------------
  No active global arrays



                         GA Statistics for process    0
                         ------------------------------

       create   destroy   get      put      acc     scatter   gather  read&inc
calls:  268      268     8621     3887     3533        0        0      141     
number of processes/call 0.00e+00 0.00e+00 0.00e+00 0.00e+00 0.00e+00
bytes total:             1.47e+07 8.83e+06 2.14e+06 0.00e+00 0.00e+00 1.13e+03
bytes remote:            0.00e+00 0.00e+00 0.00e+00 0.00e+00 0.00e+00 0.00e+00
Max memory consumed for GA by this process: 539136 bytes

MA_summarize_allocated_blocks: starting scan ...
MA_summarize_allocated_blocks: scan completed: 0 heap blocks, 0 stack blocks
MA usage statistics:

	allocation statistics:
					      heap	     stack
					      ----	     -----
	current number of blocks	         0	         0
	maximum number of blocks	        18	        28
	current total bytes		         0	         0
	maximum total bytes		  57703080	  26171400
	maximum total K-bytes		     57704	     26172
	maximum total M-bytes		        58	        27


                                     CITATION
                                     --------
                Please cite the following reference when publishing
                           results obtained with NWChem:

          E. Aprà, E. J. Bylaska, W. A. de Jong, N. Govind, K. Kowalski,
       T. P. Straatsma, M. Valiev, H. J. J. van Dam, Y. Alexeev, J. Anchell,
       V. Anisimov, F. W. Aquino, R. Atta-Fynn, J. Autschbach, N. P. Bauman,
     J. C. Becca, D. E. Bernholdt, K. Bhaskaran-Nair, S. Bogatko, P. Borowski,
        J. Boschen, J. Brabec, A. Bruner, E. Cauët, Y. Chen, G. N. Chuev,
      C. J. Cramer, J. Daily, M. J. O. Deegan, T. H. Dunning Jr., M. Dupuis,
   K. G. Dyall, G. I. Fann, S. A. Fischer, A. Fonari, H. Früchtl, L. Gagliardi,
      J. Garza, N. Gawande, S. Ghosh, K. Glaesemann, A. W. Götz, J. Hammond,
       V. Helms, E. D. Hermes, K. Hirao, S. Hirata, M. Jacquelin, L. Jensen,
   B. G. Johnson, H. Jónsson, R. A. Kendall, M. Klemm, R. Kobayashi, V. Konkov,
      S. Krishnamoorthy, M. Krishnan, Z. Lin, R. D. Lins, R. J. Littlefield,
      A. J. Logsdail, K. Lopata, W. Ma, A. V. Marenich, J. Martin del Campo,
   D. Mejia-Rodriguez, J. E. Moore, J. M. Mullin, T. Nakajima, D. R. Nascimento,
    J. A. Nichols, P. J. Nichols, J. Nieplocha, A. Otero-de-la-Roza, B. Palmer,
    A. Panyala, T. Pirojsirikul, B. Peng, R. Peverati, J. Pittner, L. Pollack,
   R. M. Richard, P. Sadayappan, G. C. Schatz, W. A. Shelton, D. W. Silverstein,
   D. M. A. Smith, T. A. Soares, D. Song, M. Swart, H. L. Taylor, G. S. Thomas,
            V. Tipparaju, D. G. Truhlar, K. Tsemekhman, T. Van Voorhis,
     Á. Vázquez-Mayagoitia, P. Verma, O. Villa, A. Vishnu, K. D. Vogiatzis,
        D. Wang, J. H. Weare, M. J. Williamson, T. L. Windus, K. Woliński,
        A. T. Wong, Q. Wu, C. Yang, Q. Yu, M. Zacharias, Z. Zhang, Y. Zhao,
                                and R. J. Harrison
                        "NWChem: Past, present, and future
                         J. Chem. Phys. 152, 184102 (2020)
                               doi:10.1063/5.0004997

                                      AUTHORS
                                      -------
     E. Apra, E. J. Bylaska, N. Govind, K. Kowalski, M. Valiev, W. A. de Jong,
      T. P. Straatsma, H. J. J. van Dam, D. Wang, T. L. Windus, N. P. Bauman,
       A. Panyala, J. Hammond, J. Autschbach, K. Bhaskaran-Nair, J. Brabec,
    K. Lopata, S. A. Fischer, S. Krishnamoorthy, M. Jacquelin, W. Ma, M. Klemm,
       O. Villa, Y. Chen, V. Anisimov, F. Aquino, S. Hirata, M. T. Hackler,
           Eric Hermes, L. Jensen, J. E. Moore, J. C. Becca, V. Konjkov,
            D. Mejia-Rodriguez, T. Risthaus, M. Malagoli, A. Marenich,
   A. Otero-de-la-Roza, J. Mullin, P. Nichols, R. Peverati, J. Pittner, Y. Zhao,
        P.-D. Fan, A. Fonari, M. J. Williamson, R. J. Harrison, J. R. Rehr,
      M. Dupuis, D. Silverstein, D. M. A. Smith, J. Nieplocha, V. Tipparaju,
      M. Krishnan, B. E. Van Kuiken, A. Vazquez-Mayagoitia, M. Swart, Q. Wu,
   T. Van Voorhis, A. A. Auer, M. Nooijen, L. D. Crosby, E. Brown, G. Cisneros,
     G. I. Fann, H. Fruchtl, J. Garza, K. Hirao, R. A. Kendall, J. A. Nichols,
       K. Tsemekhman, K. Wolinski, J. Anchell, D. E. Bernholdt, P. Borowski,
       T. Clark, D. Clerc, H. Dachsel, M. J. O. Deegan, K. Dyall, D. Elwood,
      E. Glendening, M. Gutowski, A. C. Hess, J. Jaffe, B. G. Johnson, J. Ju,
        R. Kobayashi, R. Kutteh, Z. Lin, R. Littlefield, X. Long, B. Meng,
      T. Nakajima, S. Niu, L. Pollack, M. Rosing, K. Glaesemann, G. Sandrone,
      M. Stave, H. Taylor, G. Thomas, J. H. van Lenthe, A. T. Wong, Z. Zhang.

 Total times  cpu:        2.0s     wall:        2.1s
