 argument  1 = nwchem/input_3_10_1.nw



============================== echo of input deck ==============================
echo
memory 1000 mb
geometry noautosym noautoz
O 0.87715956 1.70409266 0.47858616
H 1.70199937 1.19722607 0.29220265
H 1.16181787 2.60891668 0.65546661
O 2.81159896 -0.10395953 -0.18689424
H 3.46294039 -0.4517338 0.43482057
H 2.1584952 -0.82915775 -0.30211113
O -2.88801599 -0.0663369 0.05761427
H -2.29024563 0.26724676 -0.65069518
H -3.66545029 0.50362404 0.03495814
end
basis spherical
 * library cc-pvdz
end
task scf gradient
================================================================================


                                         
                                         


             Northwest Computational Chemistry Package (NWChem) 7.0.2
             --------------------------------------------------------


                    Environmental Molecular Sciences Laboratory
                       Pacific Northwest National Laboratory
                                Richland, WA 99352

                              Copyright (c) 1994-2020
                       Pacific Northwest National Laboratory
                            Battelle Memorial Institute

             NWChem is an open-source computational chemistry package
                        distributed under the terms of the
                      Educational Community License (ECL) 2.0
             A copy of the license is included with this distribution
                              in the LICENSE.TXT file

                                  ACKNOWLEDGMENT
                                  --------------

            This software and its documentation were developed at the
            EMSL at Pacific Northwest National Laboratory, a multiprogram
            national laboratory, operated for the U.S. Department of Energy
            by Battelle under Contract Number DE-AC05-76RL01830. Support
            for this work was provided by the Department of Energy Office
            of Biological and Environmental Research, Office of Basic
            Energy Sciences, and the Office of Advanced Scientific Computing.


           Job information
           ---------------

    hostname        = pop-os
    program         = nwchem
    date            = Tue Jul  6 14:10:24 2021

    compiled        = Wed_Jan_06_19:48:08_2021
    source          = /build/nwchem-ksKH2r/nwchem-7.0.2
    nwchem branch   = 7.0.2
    nwchem revision = N/A
    ga revision     = 5.7.1
    use scalapack   = T
    input           = nwchem/input_3_10_1.nw
    prefix          = input_3_10_1.
    data base       = ./input_3_10_1.db
    status          = startup
    nproc           =        1
    time left       =     -1s



           Memory information
           ------------------

    heap     =   32767998 doubles =    250.0 Mbytes
    stack    =   32767995 doubles =    250.0 Mbytes
    global   =   65536000 doubles =    500.0 Mbytes (distinct from heap & stack)
    total    =  131071993 doubles =   1000.0 Mbytes
    verify   = yes
    hardfail = no 


           Directory information
           ---------------------

  0 permanent = .
  0 scratch   = .




                                NWChem Input Module
                                -------------------



 Scaling coordinates for geometry "geometry" by  1.889725989
 (inverse scale =  0.529177249)



                             Geometry "geometry" -> ""
                             -------------------------

 Output coordinates in angstroms (scale by  1.889725989 to convert to a.u.)

  No.       Tag          Charge          X              Y              Z
 ---- ---------------- ---------- -------------- -------------- --------------
    1 O                    8.0000     0.57930966     1.18520960     0.36994979
    2 H                    1.0000     1.40414947     0.67834301     0.18356628
    3 H                    1.0000     0.86396797     2.09003362     0.54683024
    4 O                    8.0000     2.51374906    -0.62284259    -0.29553061
    5 H                    1.0000     3.16509049    -0.97061686     0.32618420
    6 H                    1.0000     1.86064530    -1.34804081    -0.41074750
    7 O                    8.0000    -3.18586590    -0.58521996    -0.05102210
    8 H                    1.0000    -2.58809554    -0.25163630    -0.75933155
    9 H                    1.0000    -3.96330020    -0.01525902    -0.07367823

      Atomic Mass 
      ----------- 

      O                 15.994910
      H                  1.007825


 Effective nuclear repulsion energy (a.u.)      68.2243841283

            Nuclear Dipole moment (a.u.) 
            ----------------------------
        X                 Y               Z
 ---------------- ---------------- ----------------
    -0.0000000000     0.0000000000     0.0000000000


            XYZ format geometry
            -------------------
     9
 geometry
 O                     0.57930966     1.18520960     0.36994979
 H                     1.40414947     0.67834301     0.18356628
 H                     0.86396797     2.09003362     0.54683024
 O                     2.51374906    -0.62284259    -0.29553061
 H                     3.16509049    -0.97061686     0.32618420
 H                     1.86064530    -1.34804081    -0.41074750
 O                    -3.18586590    -0.58521996    -0.05102210
 H                    -2.58809554    -0.25163630    -0.75933155
 H                    -3.96330020    -0.01525902    -0.07367823

 ==============================================================================
                                internuclear distances
 ------------------------------------------------------------------------------
       center one      |      center two      | atomic units |  angstroms
 ------------------------------------------------------------------------------
    2 H                |   1 O                |     1.86309  |     0.98591
    3 H                |   1 O                |     1.82339  |     0.96490
    5 H                |   4 O                |     1.82407  |     0.96526
    6 H                |   4 O                |     1.85707  |     0.98272
    8 H                |   7 O                |     1.86146  |     0.98504
    9 H                |   7 O                |     1.82216  |     0.96425
 ------------------------------------------------------------------------------
                         number of included internuclear distances:          6
 ==============================================================================



 ==============================================================================
                                 internuclear angles
 ------------------------------------------------------------------------------
        center 1       |       center 2       |       center 3       |  degrees
 ------------------------------------------------------------------------------
    2 H                |   1 O                |   3 H                |   105.66
    5 H                |   4 O                |   6 H                |   104.96
    8 H                |   7 O                |   9 H                |   105.80
 ------------------------------------------------------------------------------
                            number of included internuclear angles:          3
 ==============================================================================





 Summary of "ao basis" -> "" (spherical)
 ------------------------------------------------------------------------------
       Tag                 Description            Shells   Functions and Types
 ---------------- ------------------------------  ------  ---------------------
 *                          cc-pvdz                   on all atoms 


                      Basis "ao basis" -> "ao basis" (spherical)
                      -----
  O (Oxygen)
  ----------
            Exponent  Coefficients 
       -------------- ---------------------------------------------------------
  1 S  1.17200000E+04  0.000710
  1 S  1.75900000E+03  0.005470
  1 S  4.00800000E+02  0.027837
  1 S  1.13700000E+02  0.104800
  1 S  3.70300000E+01  0.283062
  1 S  1.32700000E+01  0.448719
  1 S  5.02500000E+00  0.270952
  1 S  1.01300000E+00  0.015458

  2 S  1.17200000E+04 -0.000160
  2 S  1.75900000E+03 -0.001263
  2 S  4.00800000E+02 -0.006267
  2 S  1.13700000E+02 -0.025716
  2 S  3.70300000E+01 -0.070924
  2 S  1.32700000E+01 -0.165411
  2 S  5.02500000E+00 -0.116955
  2 S  1.01300000E+00  0.557368

  3 S  3.02300000E-01  1.000000

  4 P  1.77000000E+01  0.043018
  4 P  3.85400000E+00  0.228913
  4 P  1.04600000E+00  0.508728

  5 P  2.75300000E-01  1.000000

  6 D  1.18500000E+00  1.000000

  H (Hydrogen)
  ------------
            Exponent  Coefficients 
       -------------- ---------------------------------------------------------
  1 S  1.30100000E+01  0.019685
  1 S  1.96200000E+00  0.137977
  1 S  4.44600000E-01  0.478148

  2 S  1.22000000E-01  1.000000

  3 P  7.27000000E-01  1.000000



 Summary of "ao basis" -> "ao basis" (spherical)
 ------------------------------------------------------------------------------
       Tag                 Description            Shells   Functions and Types
 ---------------- ------------------------------  ------  ---------------------
 O                          cc-pvdz                  6       14   3s2p1d
 H                          cc-pvdz                  3        5   2s1p


                                 NWChem SCF Module
                                 -----------------



  ao basis        = "ao basis"
  functions       =    72
  atoms           =     9
  closed shells   =    15
  open shells     =     0
  charge          =   0.00
  wavefunction    = RHF 
  input vectors   = atomic
  output vectors  = ./input_3_10_1.movecs
  use symmetry    = F
  symmetry adapt  = F


 Summary of "ao basis" -> "ao basis" (spherical)
 ------------------------------------------------------------------------------
       Tag                 Description            Shells   Functions and Types
 ---------------- ------------------------------  ------  ---------------------
 O                          cc-pvdz                  6       14   3s2p1d
 H                          cc-pvdz                  3        5   2s1p



 Forming initial guess at       0.1s


      Superposition of Atomic Density Guess
      -------------------------------------

 Sum of atomic energies:        -227.28668731

      Non-variational initial energy
      ------------------------------

 Total energy =    -227.744426
 1-e energy   =    -446.780815
 2-e energy   =     150.812005
 HOMO         =      -0.462124
 LUMO         =       0.065538


 Starting SCF solution at       0.3s



 ----------------------------------------------
         Quadratically convergent ROHF

 Convergence threshold     :          1.000E-04
 Maximum no. of iterations :           30
 Final Fock-matrix accuracy:          1.000E-07
 ----------------------------------------------


 Integral file          = ./input_3_10_1.aoints.0
 Record size in doubles =  65536        No. of integs per rec  =  43688
 Max. records in memory =    110        Max. records in file   = 400582
 No. of bits per label  =      8        No. of bits per value  =     64


 #quartets = 1.171D+05 #integrals = 1.340D+06 #direct =  0.0% #cached =100.0%


              iter       energy          gnorm     gmax       time
             ----- ------------------- --------- --------- --------
                 1     -227.9857356740  1.38D+00  2.61D-01      0.7
                 2     -228.0766797622  2.99D-01  8.38D-02      0.7
                 3     -228.0837085840  2.54D-02  6.14D-03      0.8
                 4     -228.0837621546  4.43D-04  9.75D-05      0.9
                 5     -228.0837621686  8.24D-06  1.92D-06      1.0


       Final RHF  results 
       ------------------ 

         Total SCF energy =   -228.083762168603
      One-electron energy =   -450.981560575799
      Two-electron energy =    154.673414278881
 Nuclear repulsion energy =     68.224384128314

        Time for solution =      0.7s


             Final eigenvalues
             -----------------

              1      
    1  -20.5894
    2  -20.5385
    3  -20.5118
    4   -1.3667
    5   -1.3130
    6   -1.2915
    7   -0.7281
    8   -0.6783
    9   -0.6724
   10   -0.5980
   11   -0.5471
   12   -0.5412
   13   -0.5077
   14   -0.4772
   15   -0.4566
   16    0.1610
   17    0.1962
   18    0.2312
   19    0.2378
   20    0.2725
   21    0.3930
   22    0.7395
   23    0.7887
   24    0.8073
   25    0.8212

                       ROHF Final Molecular Orbital Analysis
                       -------------------------------------

 Vector    4  Occ=2.000000D+00  E=-1.366678D+00
              MO Center=  2.5D+00, -7.4D-01, -2.1D-01, r^2= 5.8D-01
   Bfn.  Coefficient  Atom+Function         Bfn.  Coefficient  Atom+Function  
  ----- ------------  ---------------      ----- ------------  ---------------
    26      0.443203  4 O  s                 27      0.390190  4 O  s          
    39      0.186361  5 H  s                 44      0.177763  6 H  s          

 Vector    5  Occ=2.000000D+00  E=-1.312962D+00
              MO Center= -3.2D+00, -4.6D-01, -1.5D-01, r^2= 5.1D-01
   Bfn.  Coefficient  Atom+Function         Bfn.  Coefficient  Atom+Function  
  ----- ------------  ---------------      ----- ------------  ---------------
    50      0.444896  7 O  s                 51      0.388785  7 O  s          
    68      0.191780  9 H  s                 63      0.179839  8 H  s          

 Vector    6  Occ=2.000000D+00  E=-1.291480D+00
              MO Center=  7.5D-01,  1.2D+00,  3.6D-01, r^2= 6.0D-01
   Bfn.  Coefficient  Atom+Function         Bfn.  Coefficient  Atom+Function  
  ----- ------------  ---------------      ----- ------------  ---------------
     2      0.440588  1 O  s                  3      0.390459  1 O  s          
    20      0.191040  3 H  s                 15      0.174209  2 H  s          

 Vector    7  Occ=2.000000D+00  E=-7.280803D-01
              MO Center=  2.5D+00, -7.6D-01, -1.8D-01, r^2= 9.6D-01
   Bfn.  Coefficient  Atom+Function         Bfn.  Coefficient  Atom+Function  
  ----- ------------  ---------------      ----- ------------  ---------------
    28      0.419805  4 O  px                39      0.329170  5 H  s          
    44     -0.299864  6 H  s                 30      0.231921  4 O  pz         
    31      0.200186  4 O  px         

 Vector    8  Occ=2.000000D+00  E=-6.782651D-01
              MO Center= -3.2D+00, -4.1D-01, -1.9D-01, r^2= 7.9D-01
   Bfn.  Coefficient  Atom+Function         Bfn.  Coefficient  Atom+Function  
  ----- ------------  ---------------      ----- ------------  ---------------
    52      0.432936  7 O  px                68     -0.330069  9 H  s          
    63      0.319259  8 H  s                 54     -0.206217  7 O  pz         
    55      0.200037  7 O  px         

 Vector    9  Occ=2.000000D+00  E=-6.724149D-01
              MO Center=  1.1D+00,  8.7D-01,  2.4D-01, r^2= 1.8D+00
   Bfn.  Coefficient  Atom+Function         Bfn.  Coefficient  Atom+Function  
  ----- ------------  ---------------      ----- ------------  ---------------
     5      0.382641  1 O  py                15     -0.292526  2 H  s          
    20      0.282324  3 H  s                 29     -0.231317  4 O  py         
     8      0.174797  1 O  py                 4     -0.166216  1 O  px         

 Vector   10  Occ=2.000000D+00  E=-5.979605D-01
              MO Center=  2.2D+00, -2.7D-01, -2.0D-01, r^2= 1.8D+00
   Bfn.  Coefficient  Atom+Function         Bfn.  Coefficient  Atom+Function  
  ----- ------------  ---------------      ----- ------------  ---------------
    29      0.435793  4 O  py                27      0.315226  4 O  s          
    32      0.285483  4 O  py                30     -0.245672  4 O  pz         
     5      0.204968  1 O  py                39     -0.190186  5 H  s          
    44     -0.180271  6 H  s                 33     -0.167523  4 O  pz         
    20      0.156487  3 H  s          

 Vector   11  Occ=2.000000D+00  E=-5.471210D-01
              MO Center= -3.2D+00, -6.1D-01, -3.0D-02, r^2= 7.5D-01
   Bfn.  Coefficient  Atom+Function         Bfn.  Coefficient  Atom+Function  
  ----- ------------  ---------------      ----- ------------  ---------------
    53      0.420389  7 O  py                51     -0.338861  7 O  s          
    54     -0.336502  7 O  pz                56      0.286723  7 O  py         
    57     -0.228884  7 O  pz                63      0.208360  8 H  s          
    68      0.199205  9 H  s          

 Vector   12  Occ=2.000000D+00  E=-5.412467D-01
              MO Center=  1.5D+00,  2.7D-01,  2.6D-02, r^2= 2.7D+00
   Bfn.  Coefficient  Atom+Function         Bfn.  Coefficient  Atom+Function  
  ----- ------------  ---------------      ----- ------------  ---------------
    30      0.369130  4 O  pz                 4      0.313871  1 O  px         
    33      0.284959  4 O  pz                 3     -0.253618  1 O  s          
    28     -0.232600  4 O  px                 7      0.220718  1 O  px         
     5      0.197513  1 O  py                20      0.191544  3 H  s          
    31     -0.182692  4 O  px         

 Vector   13  Occ=2.000000D+00  E=-5.077055D-01
              MO Center=  1.5D+00,  2.9D-01,  6.4D-02, r^2= 2.5D+00
   Bfn.  Coefficient  Atom+Function         Bfn.  Coefficient  Atom+Function  
  ----- ------------  ---------------      ----- ------------  ---------------
     4      0.410161  1 O  px                30     -0.301044  4 O  pz         
     7      0.289690  1 O  px                33     -0.241422  4 O  pz         
    28      0.239329  4 O  px                29     -0.225627  4 O  py         
    31      0.185505  4 O  px                15      0.183241  2 H  s          
     3     -0.179515  1 O  s                 32     -0.164929  4 O  py         

 Vector   14  Occ=2.000000D+00  E=-4.771993D-01
              MO Center= -3.2D+00, -5.7D-01, -6.4D-02, r^2= 6.1D-01
   Bfn.  Coefficient  Atom+Function         Bfn.  Coefficient  Atom+Function  
  ----- ------------  ---------------      ----- ------------  ---------------
    54      0.415477  7 O  pz                53      0.387963  7 O  py         
    57      0.327136  7 O  pz                56      0.304924  7 O  py         
    52      0.275219  7 O  px                55      0.215866  7 O  px         

 Vector   15  Occ=2.000000D+00  E=-4.565537D-01
              MO Center=  6.0D-01,  1.2D+00,  3.7D-01, r^2= 6.2D-01
   Bfn.  Coefficient  Atom+Function         Bfn.  Coefficient  Atom+Function  
  ----- ------------  ---------------      ----- ------------  ---------------
     6      0.608034  1 O  pz                 9      0.488619  1 O  pz         

 Vector   16  Occ=0.000000D+00  E= 1.610133D-01
              MO Center=  2.3D+00, -9.3D-01,  6.3D-02, r^2= 4.7D+00
   Bfn.  Coefficient  Atom+Function         Bfn.  Coefficient  Atom+Function  
  ----- ------------  ---------------      ----- ------------  ---------------
    27      0.920917  4 O  s                 40     -0.798937  5 H  s          
    45     -0.720767  6 H  s                 21     -0.352606  3 H  s          
    32     -0.277210  4 O  py                 3      0.267438  1 O  s          
    64     -0.207861  8 H  s          

 Vector   17  Occ=0.000000D+00  E= 1.962013D-01
              MO Center= -2.8D+00, -4.1D-02, -4.0D-01, r^2= 5.9D+00
   Bfn.  Coefficient  Atom+Function         Bfn.  Coefficient  Atom+Function  
  ----- ------------  ---------------      ----- ------------  ---------------
    51      0.946909  7 O  s                 69     -0.813325  9 H  s          
    64     -0.761600  8 H  s                 40      0.360140  5 H  s          
    56      0.253104  7 O  py                57     -0.198793  7 O  pz         
    21     -0.190086  3 H  s                 27     -0.190941  4 O  s          
     3      0.162137  1 O  s          

 Vector   18  Occ=0.000000D+00  E= 2.311817D-01
              MO Center=  7.4D-01,  1.4D+00,  4.9D-01, r^2= 8.5D+00
   Bfn.  Coefficient  Atom+Function         Bfn.  Coefficient  Atom+Function  
  ----- ------------  ---------------      ----- ------------  ---------------
    21      1.199927  3 H  s                  3     -0.735162  1 O  s          
    40     -0.703451  5 H  s                 69     -0.557295  9 H  s          
     8     -0.351719  1 O  py                45      0.273571  6 H  s          
    27      0.236860  4 O  s                 51      0.230226  7 O  s          
    31      0.205956  4 O  px                64      0.173942  8 H  s          

 Vector   19  Occ=0.000000D+00  E= 2.377697D-01
              MO Center=  2.0D+00, -8.1D-01, -3.5D-02, r^2= 5.8D+00
   Bfn.  Coefficient  Atom+Function         Bfn.  Coefficient  Atom+Function  
  ----- ------------  ---------------      ----- ------------  ---------------
    45      1.394307  6 H  s                 40     -1.133548  5 H  s          
    21     -0.536299  3 H  s                 31      0.491649  4 O  px         
     3      0.347469  1 O  s                 33      0.273578  4 O  pz         
    32      0.216317  4 O  py                28      0.205916  4 O  px         
    69     -0.202779  9 H  s                  8      0.152319  1 O  py         

 Vector   20  Occ=0.000000D+00  E= 2.724647D-01
              MO Center= -2.7D+00,  1.7D-02, -4.9D-01, r^2= 5.9D+00
   Bfn.  Coefficient  Atom+Function         Bfn.  Coefficient  Atom+Function  
  ----- ------------  ---------------      ----- ------------  ---------------
    64      1.376464  8 H  s                 69     -1.292619  9 H  s          
    55     -0.562367  7 O  px                21     -0.375468  3 H  s          
    45     -0.336664  6 H  s                 57      0.292624  7 O  pz         
    40      0.259605  5 H  s                 52     -0.241048  7 O  px         
    16      0.168942  2 H  s          

 Vector   21  Occ=0.000000D+00  E= 3.930413D-01
              MO Center=  1.5D+00,  7.4D-01,  2.1D-01, r^2= 3.6D+00
   Bfn.  Coefficient  Atom+Function         Bfn.  Coefficient  Atom+Function  
  ----- ------------  ---------------      ----- ------------  ---------------
    16      2.153422  2 H  s                 21     -0.982872  3 H  s          
     3     -0.598401  1 O  s                  8      0.553661  1 O  py         
     7     -0.396484  1 O  px                45     -0.359817  6 H  s          
    32     -0.347569  4 O  py                40     -0.342427  5 H  s          
    31      0.229608  4 O  px                 5      0.202005  1 O  py         

 Vector   22  Occ=0.000000D+00  E= 7.394780D-01
              MO Center=  2.3D+00, -7.4D-01, -1.1D-01, r^2= 2.4D+00
   Bfn.  Coefficient  Atom+Function         Bfn.  Coefficient  Atom+Function  
  ----- ------------  ---------------      ----- ------------  ---------------
    44      0.964271  6 H  s                 39     -0.846833  5 H  s          
    45     -0.722513  6 H  s                 40      0.604431  5 H  s          
    31      0.398293  4 O  px                20     -0.291775  3 H  s          
    16      0.259681  2 H  s                 33      0.197653  4 O  pz         
    28      0.192556  4 O  px         

 Vector   23  Occ=0.000000D+00  E= 7.887226D-01
              MO Center= -1.7D+00,  4.2D-03, -2.1D-01, r^2= 5.8D+00
   Bfn.  Coefficient  Atom+Function         Bfn.  Coefficient  Atom+Function  
  ----- ------------  ---------------      ----- ------------  ---------------
    63      0.890177  8 H  s                 64     -0.646153  8 H  s          
    68     -0.641749  9 H  s                 15      0.612231  2 H  s          
    16     -0.599633  2 H  s                 69      0.472874  9 H  s          
    55     -0.309070  7 O  px                20     -0.237105  3 H  s          
    21      0.230388  3 H  s                 52     -0.197211  7 O  px         

 Vector   24  Occ=0.000000D+00  E= 8.073398D-01
              MO Center= -1.8D-01,  5.8D-01,  1.1D-01, r^2= 6.2D+00
   Bfn.  Coefficient  Atom+Function         Bfn.  Coefficient  Atom+Function  
  ----- ------------  ---------------      ----- ------------  ---------------
    16     -0.976239  2 H  s                 15      0.956821  2 H  s          
    63     -0.522006  8 H  s                 20     -0.517471  3 H  s          
    68      0.512862  9 H  s                 21      0.506909  3 H  s          
    64      0.422853  8 H  s                 69     -0.396213  9 H  s          
     8      0.240628  1 O  py                55      0.208771  7 O  px         

 Vector   25  Occ=0.000000D+00  E= 8.212331D-01
              MO Center=  2.6D+00, -1.1D+00,  2.8D-02, r^2= 2.0D+00
   Bfn.  Coefficient  Atom+Function         Bfn.  Coefficient  Atom+Function  
  ----- ------------  ---------------      ----- ------------  ---------------
    39      0.922378  5 H  s                 44      0.726792  6 H  s          
    40     -0.654343  5 H  s                 45     -0.547578  6 H  s          
    16      0.428270  2 H  s                 26     -0.253060  4 O  s          
    27      0.226370  4 O  s                 41      0.225943  5 H  px         
    29      0.215973  4 O  py                46     -0.215877  6 H  px         


 center of mass
 --------------
 x =  -0.02574730 y =  -0.00634005 z =   0.00649100

 moments of inertia (a.u.)
 ------------------
         166.726118837879         -48.678921146426           9.181035742769
         -48.678921146426        1115.975499448567         -43.372852053977
           9.181035742769         -43.372852053977        1248.232047869505

  Mulliken analysis of the total density
  --------------------------------------

    Atom       Charge   Shell Charges
 -----------   ------   -------------------------------------------------------
    1 O    8     8.39   2.00  0.83  0.84  2.82  1.88  0.01
    2 H    1     0.81   0.63  0.09  0.09
    3 H    1     0.85   0.69  0.08  0.08
    4 O    8     8.32   2.00  0.83  0.84  2.82  1.81  0.01
    5 H    1     0.83   0.68  0.07  0.08
    6 H    1     0.81   0.66  0.07  0.08
    7 O    8     8.33   2.00  0.83  0.84  2.81  1.84  0.01
    8 H    1     0.83   0.67  0.08  0.08
    9 H    1     0.84   0.69  0.07  0.09

       Multipole analysis of the density wrt the origin
       ------------------------------------------------

     L   x y z        total         open         nuclear
     -   - - -        -----         ----         -------
     0   0 0 0     -0.000000      0.000000     30.000000

     1   1 0 0      0.837040      0.000000     -0.000000
     1   0 1 0     -0.045026      0.000000      0.000000
     1   0 0 1     -0.210511      0.000000      0.000000

     2   2 0 0     -7.103877      0.000000    617.930062
     2   1 1 0     -5.890232      0.000000     20.614189
     2   1 0 1      5.120574      0.000000      1.169092
     2   0 2 0    -10.541687      0.000000     88.320817
     2   0 1 1      0.405480      0.000000     24.697083
     2   0 0 2    -14.353335      0.000000     10.728470


 Parallel integral file used      31 records with       0 large values

                              NWChem Gradients Module
                              -----------------------



  wavefunction    =   RHF     



                         RHF ENERGY GRADIENTS

    atom               coordinates                        gradient
                 x          y          z           x          y          z
   1 O       1.094737   2.239721   0.699104   -0.029150  -0.004742   0.001434
   2 H       2.653458   1.281882   0.346890    0.030395  -0.021754  -0.006794
   3 H       1.632663   3.949591   1.033359    0.004811   0.020589   0.004394
   4 O       4.750297  -1.177002  -0.558472    0.005060   0.037101  -0.006336
   5 H       5.981154  -1.834200   0.616399    0.013649  -0.005813   0.012468
   6 H       3.516110  -2.547428  -0.776200   -0.024221  -0.025325  -0.004507
   7 O      -6.020414  -1.105905  -0.096418   -0.007528  -0.019549   0.026885
   8 H      -4.890791  -0.475524  -1.434929    0.025285   0.009775  -0.029731
   9 H      -7.489551  -0.028835  -0.139232   -0.018302   0.009719   0.002187

                 ----------------------------------------
                 |  Time  |  1-e(secs)   |  2-e(secs)   |
                 ----------------------------------------
                 |  CPU   |       0.01   |       0.60   |
                 ----------------------------------------
                 |  WALL  |       0.01   |       0.60   |
                 ----------------------------------------

 Task  times  cpu:        1.6s     wall:        1.6s


                                NWChem Input Module
                                -------------------


 Summary of allocated global arrays
-----------------------------------
  No active global arrays



                         GA Statistics for process    0
                         ------------------------------

       create   destroy   get      put      acc     scatter   gather  read&inc
calls:  249      249     8489     3834     3497        0        0      165     
number of processes/call 0.00e+00 0.00e+00 0.00e+00 0.00e+00 0.00e+00
bytes total:             1.43e+07 8.58e+06 2.03e+06 0.00e+00 0.00e+00 1.32e+03
bytes remote:            0.00e+00 0.00e+00 0.00e+00 0.00e+00 0.00e+00 0.00e+00
Max memory consumed for GA by this process: 539136 bytes

MA_summarize_allocated_blocks: starting scan ...
MA_summarize_allocated_blocks: scan completed: 0 heap blocks, 0 stack blocks
MA usage statistics:

	allocation statistics:
					      heap	     stack
					      ----	     -----
	current number of blocks	         0	         0
	maximum number of blocks	        18	        28
	current total bytes		         0	         0
	maximum total bytes		  57703096	  26171384
	maximum total K-bytes		     57704	     26172
	maximum total M-bytes		        58	        27


                                     CITATION
                                     --------
                Please cite the following reference when publishing
                           results obtained with NWChem:

          E. Aprà, E. J. Bylaska, W. A. de Jong, N. Govind, K. Kowalski,
       T. P. Straatsma, M. Valiev, H. J. J. van Dam, Y. Alexeev, J. Anchell,
       V. Anisimov, F. W. Aquino, R. Atta-Fynn, J. Autschbach, N. P. Bauman,
     J. C. Becca, D. E. Bernholdt, K. Bhaskaran-Nair, S. Bogatko, P. Borowski,
        J. Boschen, J. Brabec, A. Bruner, E. Cauët, Y. Chen, G. N. Chuev,
      C. J. Cramer, J. Daily, M. J. O. Deegan, T. H. Dunning Jr., M. Dupuis,
   K. G. Dyall, G. I. Fann, S. A. Fischer, A. Fonari, H. Früchtl, L. Gagliardi,
      J. Garza, N. Gawande, S. Ghosh, K. Glaesemann, A. W. Götz, J. Hammond,
       V. Helms, E. D. Hermes, K. Hirao, S. Hirata, M. Jacquelin, L. Jensen,
   B. G. Johnson, H. Jónsson, R. A. Kendall, M. Klemm, R. Kobayashi, V. Konkov,
      S. Krishnamoorthy, M. Krishnan, Z. Lin, R. D. Lins, R. J. Littlefield,
      A. J. Logsdail, K. Lopata, W. Ma, A. V. Marenich, J. Martin del Campo,
   D. Mejia-Rodriguez, J. E. Moore, J. M. Mullin, T. Nakajima, D. R. Nascimento,
    J. A. Nichols, P. J. Nichols, J. Nieplocha, A. Otero-de-la-Roza, B. Palmer,
    A. Panyala, T. Pirojsirikul, B. Peng, R. Peverati, J. Pittner, L. Pollack,
   R. M. Richard, P. Sadayappan, G. C. Schatz, W. A. Shelton, D. W. Silverstein,
   D. M. A. Smith, T. A. Soares, D. Song, M. Swart, H. L. Taylor, G. S. Thomas,
            V. Tipparaju, D. G. Truhlar, K. Tsemekhman, T. Van Voorhis,
     Á. Vázquez-Mayagoitia, P. Verma, O. Villa, A. Vishnu, K. D. Vogiatzis,
        D. Wang, J. H. Weare, M. J. Williamson, T. L. Windus, K. Woliński,
        A. T. Wong, Q. Wu, C. Yang, Q. Yu, M. Zacharias, Z. Zhang, Y. Zhao,
                                and R. J. Harrison
                        "NWChem: Past, present, and future
                         J. Chem. Phys. 152, 184102 (2020)
                               doi:10.1063/5.0004997

                                      AUTHORS
                                      -------
     E. Apra, E. J. Bylaska, N. Govind, K. Kowalski, M. Valiev, W. A. de Jong,
      T. P. Straatsma, H. J. J. van Dam, D. Wang, T. L. Windus, N. P. Bauman,
       A. Panyala, J. Hammond, J. Autschbach, K. Bhaskaran-Nair, J. Brabec,
    K. Lopata, S. A. Fischer, S. Krishnamoorthy, M. Jacquelin, W. Ma, M. Klemm,
       O. Villa, Y. Chen, V. Anisimov, F. Aquino, S. Hirata, M. T. Hackler,
           Eric Hermes, L. Jensen, J. E. Moore, J. C. Becca, V. Konjkov,
            D. Mejia-Rodriguez, T. Risthaus, M. Malagoli, A. Marenich,
   A. Otero-de-la-Roza, J. Mullin, P. Nichols, R. Peverati, J. Pittner, Y. Zhao,
        P.-D. Fan, A. Fonari, M. J. Williamson, R. J. Harrison, J. R. Rehr,
      M. Dupuis, D. Silverstein, D. M. A. Smith, J. Nieplocha, V. Tipparaju,
      M. Krishnan, B. E. Van Kuiken, A. Vazquez-Mayagoitia, M. Swart, Q. Wu,
   T. Van Voorhis, A. A. Auer, M. Nooijen, L. D. Crosby, E. Brown, G. Cisneros,
     G. I. Fann, H. Fruchtl, J. Garza, K. Hirao, R. A. Kendall, J. A. Nichols,
       K. Tsemekhman, K. Wolinski, J. Anchell, D. E. Bernholdt, P. Borowski,
       T. Clark, D. Clerc, H. Dachsel, M. J. O. Deegan, K. Dyall, D. Elwood,
      E. Glendening, M. Gutowski, A. C. Hess, J. Jaffe, B. G. Johnson, J. Ju,
        R. Kobayashi, R. Kutteh, Z. Lin, R. Littlefield, X. Long, B. Meng,
      T. Nakajima, S. Niu, L. Pollack, M. Rosing, K. Glaesemann, G. Sandrone,
      M. Stave, H. Taylor, G. Thomas, J. H. van Lenthe, A. T. Wong, Z. Zhang.

 Total times  cpu:        1.6s     wall:        1.7s
