 argument  1 = nwchem/input_2_13_at_worker_5_1.nw



============================== echo of input deck ==============================
echo
memory 1000 mb
geometry noautosym noautoz
O 0.57630762 -1.69154092 -0.42866929
H 0.43417462 -2.64420081 -0.48595869
H 0.08911917 -1.3894609 0.38589939
O 2.81159896 -0.10395953 -0.18689424
H 3.46294039 -0.4517338 0.43482057
H 2.1584952 -0.82915775 -0.30211113
end
basis spherical
 * library cc-pvdz
end
task scf gradient
================================================================================


                                         
                                         


             Northwest Computational Chemistry Package (NWChem) 7.0.2
             --------------------------------------------------------


                    Environmental Molecular Sciences Laboratory
                       Pacific Northwest National Laboratory
                                Richland, WA 99352

                              Copyright (c) 1994-2020
                       Pacific Northwest National Laboratory
                            Battelle Memorial Institute

             NWChem is an open-source computational chemistry package
                        distributed under the terms of the
                      Educational Community License (ECL) 2.0
             A copy of the license is included with this distribution
                              in the LICENSE.TXT file

                                  ACKNOWLEDGMENT
                                  --------------

            This software and its documentation were developed at the
            EMSL at Pacific Northwest National Laboratory, a multiprogram
            national laboratory, operated for the U.S. Department of Energy
            by Battelle under Contract Number DE-AC05-76RL01830. Support
            for this work was provided by the Department of Energy Office
            of Biological and Environmental Research, Office of Basic
            Energy Sciences, and the Office of Advanced Scientific Computing.


           Job information
           ---------------

    hostname        = pop-os
    program         = nwchem
    date            = Thu Jul  8 18:22:18 2021

    compiled        = Wed_Jan_06_19:48:08_2021
    source          = /build/nwchem-ksKH2r/nwchem-7.0.2
    nwchem branch   = 7.0.2
    nwchem revision = N/A
    ga revision     = 5.7.1
    use scalapack   = T
    input           = nwchem/input_2_13_at_worker_5_1.nw
    prefix          = input_2_13_at_worker_5_1.
    data base       = ./input_2_13_at_worker_5_1.db
    status          = startup
    nproc           =        1
    time left       =     -1s



           Memory information
           ------------------

    heap     =   32767998 doubles =    250.0 Mbytes
    stack    =   32767995 doubles =    250.0 Mbytes
    global   =   65536000 doubles =    500.0 Mbytes (distinct from heap & stack)
    total    =  131071993 doubles =   1000.0 Mbytes
    verify   = yes
    hardfail = no 


           Directory information
           ---------------------

  0 permanent = .
  0 scratch   = .




                                NWChem Input Module
                                -------------------



 Scaling coordinates for geometry "geometry" by  1.889725989
 (inverse scale =  0.529177249)



                             Geometry "geometry" -> ""
                             -------------------------

 Output coordinates in angstroms (scale by  1.889725989 to convert to a.u.)

  No.       Tag          Charge          X              Y              Z
 ---- ---------------- ---------- -------------- -------------- --------------
    1 O                    8.0000    -1.08609148    -0.70761308    -0.18407639
    2 H                    1.0000    -1.22822448    -1.66027297    -0.24136579
    3 H                    1.0000    -1.57327993    -0.40553306     0.63049230
    4 O                    8.0000     1.14919986     0.87996831     0.05769867
    5 H                    1.0000     1.80054129     0.53219404     0.67941348
    6 H                    1.0000     0.49609610     0.15477009    -0.05751823

      Atomic Mass 
      ----------- 

      O                 15.994910
      H                  1.007825


 Effective nuclear repulsion energy (a.u.)      37.2874002149

            Nuclear Dipole moment (a.u.) 
            ----------------------------
        X                 Y               Z
 ---------------- ---------------- ----------------
    -0.0000000000     0.0000000000    -0.0000000000


            XYZ format geometry
            -------------------
     6
 geometry
 O                    -1.08609148    -0.70761308    -0.18407639
 H                    -1.22822448    -1.66027297    -0.24136579
 H                    -1.57327993    -0.40553306     0.63049230
 O                     1.14919986     0.87996831     0.05769867
 H                     1.80054129     0.53219404     0.67941348
 H                     0.49609610     0.15477009    -0.05751823

 ==============================================================================
                                internuclear distances
 ------------------------------------------------------------------------------
       center one      |      center two      | atomic units |  angstroms
 ------------------------------------------------------------------------------
    2 H                |   1 O                |     1.82341  |     0.96491
    3 H                |   1 O                |     1.88227  |     0.99606
    5 H                |   4 O                |     1.82407  |     0.96526
    6 H                |   4 O                |     1.85707  |     0.98272
 ------------------------------------------------------------------------------
                         number of included internuclear distances:          4
 ==============================================================================



 ==============================================================================
                                 internuclear angles
 ------------------------------------------------------------------------------
        center 1       |       center 2       |       center 3       |  degrees
 ------------------------------------------------------------------------------
    2 H                |   1 O                |   3 H                |   106.02
    5 H                |   4 O                |   6 H                |   104.96
 ------------------------------------------------------------------------------
                            number of included internuclear angles:          2
 ==============================================================================





 Summary of "ao basis" -> "" (spherical)
 ------------------------------------------------------------------------------
       Tag                 Description            Shells   Functions and Types
 ---------------- ------------------------------  ------  ---------------------
 *                          cc-pvdz                   on all atoms 


                      Basis "ao basis" -> "ao basis" (spherical)
                      -----
  O (Oxygen)
  ----------
            Exponent  Coefficients 
       -------------- ---------------------------------------------------------
  1 S  1.17200000E+04  0.000710
  1 S  1.75900000E+03  0.005470
  1 S  4.00800000E+02  0.027837
  1 S  1.13700000E+02  0.104800
  1 S  3.70300000E+01  0.283062
  1 S  1.32700000E+01  0.448719
  1 S  5.02500000E+00  0.270952
  1 S  1.01300000E+00  0.015458

  2 S  1.17200000E+04 -0.000160
  2 S  1.75900000E+03 -0.001263
  2 S  4.00800000E+02 -0.006267
  2 S  1.13700000E+02 -0.025716
  2 S  3.70300000E+01 -0.070924
  2 S  1.32700000E+01 -0.165411
  2 S  5.02500000E+00 -0.116955
  2 S  1.01300000E+00  0.557368

  3 S  3.02300000E-01  1.000000

  4 P  1.77000000E+01  0.043018
  4 P  3.85400000E+00  0.228913
  4 P  1.04600000E+00  0.508728

  5 P  2.75300000E-01  1.000000

  6 D  1.18500000E+00  1.000000

  H (Hydrogen)
  ------------
            Exponent  Coefficients 
       -------------- ---------------------------------------------------------
  1 S  1.30100000E+01  0.019685
  1 S  1.96200000E+00  0.137977
  1 S  4.44600000E-01  0.478148

  2 S  1.22000000E-01  1.000000

  3 P  7.27000000E-01  1.000000



 Summary of "ao basis" -> "ao basis" (spherical)
 ------------------------------------------------------------------------------
       Tag                 Description            Shells   Functions and Types
 ---------------- ------------------------------  ------  ---------------------
 O                          cc-pvdz                  6       14   3s2p1d
 H                          cc-pvdz                  3        5   2s1p


                                 NWChem SCF Module
                                 -----------------



  ao basis        = "ao basis"
  functions       =    48
  atoms           =     6
  closed shells   =    10
  open shells     =     0
  charge          =   0.00
  wavefunction    = RHF 
  input vectors   = atomic
  output vectors  = ./input_2_13_at_worker_5_1.movecs
  use symmetry    = F
  symmetry adapt  = F


 Summary of "ao basis" -> "ao basis" (spherical)
 ------------------------------------------------------------------------------
       Tag                 Description            Shells   Functions and Types
 ---------------- ------------------------------  ------  ---------------------
 O                          cc-pvdz                  6       14   3s2p1d
 H                          cc-pvdz                  3        5   2s1p



 Forming initial guess at       0.0s


      Superposition of Atomic Density Guess
      -------------------------------------

 Sum of atomic energies:        -151.52445821

      Non-variational initial energy
      ------------------------------

 Total energy =    -151.835060
 1-e energy   =    -281.477184
 2-e energy   =      92.354724
 HOMO         =      -0.460932
 LUMO         =       0.066062


 Starting SCF solution at       0.1s



 ----------------------------------------------
         Quadratically convergent ROHF

 Convergence threshold     :          1.000E-04
 Maximum no. of iterations :           30
 Final Fock-matrix accuracy:          1.000E-07
 ----------------------------------------------


 Integral file          = ./input_2_13_at_worker_5_1.aoints.0
 Record size in doubles =  65536        No. of integs per rec  =  43688
 Max. records in memory =     23        Max. records in file   = 400226
 No. of bits per label  =      8        No. of bits per value  =     64


 #quartets = 4.200D+04 #integrals = 6.029D+05 #direct =  0.0% #cached =100.0%


              iter       energy          gnorm     gmax       time
             ----- ------------------- --------- --------- --------
                 1     -151.9905778736  1.13D+00  2.98D-01      0.3
                 2     -152.0511479476  2.44D-01  7.79D-02      0.3
                 3     -152.0558970536  2.06D-02  5.66D-03      0.3
                 4     -152.0559330337  3.73D-04  1.01D-04      0.3
                 5     -152.0559330429  6.61D-06  1.45D-06      0.4


       Final RHF  results 
       ------------------ 

         Total SCF energy =   -152.055933042872
      One-electron energy =   -284.196514348149
      Two-electron energy =     94.853181090394
 Nuclear repulsion energy =     37.287400214883

        Time for solution =      0.3s


             Final eigenvalues
             -----------------

              1      
    1  -20.5897
    2  -20.5111
    3   -1.3622
    4   -1.2911
    5   -0.7260
    6   -0.6698
    7   -0.5898
    8   -0.5423
    9   -0.5080
   10   -0.4551
   11    0.1579
   12    0.2301
   13    0.2356
   14    0.3874
   15    0.7424
   16    0.8012
   17    0.8077
   18    0.8588
   19    1.1243
   20    1.1839

                       ROHF Final Molecular Orbital Analysis
                       -------------------------------------

 Vector    2  Occ=2.000000D+00  E=-2.051109D+01
              MO Center=  1.1D+00,  8.8D-01,  5.8D-02, r^2= 1.5D-02
   Bfn.  Coefficient  Atom+Function         Bfn.  Coefficient  Atom+Function  
  ----- ------------  ---------------      ----- ------------  ---------------
    25      1.000956  4 O  s          

 Vector    3  Occ=2.000000D+00  E=-1.362195D+00
              MO Center= -1.1D+00, -7.9D-01, -8.6D-02, r^2= 5.8D-01
   Bfn.  Coefficient  Atom+Function         Bfn.  Coefficient  Atom+Function  
  ----- ------------  ---------------      ----- ------------  ---------------
     2      0.444022  1 O  s                  3      0.394685  1 O  s          
    15      0.187253  2 H  s                 20      0.171615  3 H  s          

 Vector    4  Occ=2.000000D+00  E=-1.291117D+00
              MO Center=  1.1D+00,  7.2D-01,  1.3D-01, r^2= 6.0D-01
   Bfn.  Coefficient  Atom+Function         Bfn.  Coefficient  Atom+Function  
  ----- ------------  ---------------      ----- ------------  ---------------
    26      0.440713  4 O  s                 27      0.388728  4 O  s          
    39      0.191327  5 H  s                 44      0.176250  6 H  s          

 Vector    5  Occ=2.000000D+00  E=-7.260148D-01
              MO Center= -1.1D+00, -8.0D-01, -4.3D-02, r^2= 9.4D-01
   Bfn.  Coefficient  Atom+Function         Bfn.  Coefficient  Atom+Function  
  ----- ------------  ---------------      ----- ------------  ---------------
     5      0.411541  1 O  py                15     -0.333372  2 H  s          
    20      0.297944  3 H  s                  6      0.248713  1 O  pz         
     8      0.193560  1 O  py         

 Vector    6  Occ=2.000000D+00  E=-6.697629D-01
              MO Center=  6.8D-01,  3.9D-01,  9.7D-02, r^2= 1.8D+00
   Bfn.  Coefficient  Atom+Function         Bfn.  Coefficient  Atom+Function  
  ----- ------------  ---------------      ----- ------------  ---------------
    28      0.361017  4 O  px                44     -0.292042  6 H  s          
    39      0.281604  5 H  s                  4     -0.203323  1 O  px         
    30      0.194228  4 O  pz                31      0.165513  4 O  px         

 Vector    7  Occ=2.000000D+00  E=-5.897638D-01
              MO Center= -5.9D-01, -3.8D-01, -1.3D-01, r^2= 2.0D+00
   Bfn.  Coefficient  Atom+Function         Bfn.  Coefficient  Atom+Function  
  ----- ------------  ---------------      ----- ------------  ---------------
     6     -0.321853  1 O  pz                 3      0.307695  1 O  s          
     5      0.279569  1 O  py                 4      0.242781  1 O  px         
     9     -0.216391  1 O  pz                 8      0.181582  1 O  py         
    15     -0.182429  2 H  s                 20     -0.182139  3 H  s          
    28      0.180134  4 O  px                39      0.179231  5 H  s          

 Vector    8  Occ=2.000000D+00  E=-5.423043D-01
              MO Center= -8.0D-02,  2.4D-02, -8.1D-02, r^2= 2.6D+00
   Bfn.  Coefficient  Atom+Function         Bfn.  Coefficient  Atom+Function  
  ----- ------------  ---------------      ----- ------------  ---------------
     4      0.315126  1 O  px                 6      0.305614  1 O  pz         
    29     -0.299891  4 O  py                 7      0.253360  1 O  px         
    27     -0.240735  4 O  s                  9      0.237952  1 O  pz         
    32     -0.208647  4 O  py                30      0.185797  4 O  pz         
    39      0.165820  5 H  s          

 Vector    9  Occ=2.000000D+00  E=-5.079994D-01
              MO Center=  1.1D-01,  1.6D-01, -5.3D-02, r^2= 2.6D+00
   Bfn.  Coefficient  Atom+Function         Bfn.  Coefficient  Atom+Function  
  ----- ------------  ---------------      ----- ------------  ---------------
    29      0.397642  4 O  py                 4      0.392339  1 O  px         
     7      0.299988  1 O  px                32      0.280586  4 O  py         
    27      0.196519  4 O  s                  6      0.195350  1 O  pz         
    44     -0.176798  6 H  s                  9      0.157352  1 O  pz         

 Vector   10  Occ=2.000000D+00  E=-4.551123D-01
              MO Center=  1.1D+00,  8.5D-01,  6.5D-02, r^2= 6.3D-01
   Bfn.  Coefficient  Atom+Function         Bfn.  Coefficient  Atom+Function  
  ----- ------------  ---------------      ----- ------------  ---------------
    30      0.479558  4 O  pz                33      0.382379  4 O  pz         
    28     -0.339418  4 O  px                31     -0.275982  4 O  px         
    29      0.215383  4 O  py                32      0.170228  4 O  py         

 Vector   11  Occ=0.000000D+00  E= 1.579165D-01
              MO Center= -1.2D+00, -9.8D-01,  3.1D-01, r^2= 3.8D+00
   Bfn.  Coefficient  Atom+Function         Bfn.  Coefficient  Atom+Function  
  ----- ------------  ---------------      ----- ------------  ---------------
     3      0.933916  1 O  s                 16     -0.785447  2 H  s          
    21     -0.762158  3 H  s                 40     -0.328582  5 H  s          
    27      0.239295  4 O  s                  9      0.206414  1 O  pz         
     8     -0.174460  1 O  py                 7     -0.165825  1 O  px         

 Vector   12  Occ=0.000000D+00  E= 2.300897D-01
              MO Center=  6.9D-01, -3.8D-01,  4.7D-01, r^2= 6.4D+00
   Bfn.  Coefficient  Atom+Function         Bfn.  Coefficient  Atom+Function  
  ----- ------------  ---------------      ----- ------------  ---------------
    40      1.133577  5 H  s                 16     -1.004641  2 H  s          
    27     -0.676841  4 O  s                 21      0.586849  3 H  s          
     8     -0.354743  1 O  py                 3      0.241372  1 O  s          
    33     -0.234831  4 O  pz                31     -0.232591  4 O  px         
     5     -0.171661  1 O  py                 9     -0.159860  1 O  pz         

 Vector   13  Occ=0.000000D+00  E= 2.356010D-01
              MO Center= -5.0D-01, -4.2D-01,  5.8D-01, r^2= 6.0D+00
   Bfn.  Coefficient  Atom+Function         Bfn.  Coefficient  Atom+Function  
  ----- ------------  ---------------      ----- ------------  ---------------
    21      1.278033  3 H  s                 16     -0.986766  2 H  s          
    40     -0.777363  5 H  s                 27      0.513852  4 O  s          
     8     -0.395556  1 O  py                 9     -0.341393  1 O  pz         
     7      0.182402  1 O  px                31      0.159878  4 O  px         
     5     -0.158982  1 O  py                 6     -0.155162  1 O  pz         

 Vector   14  Occ=0.000000D+00  E= 3.873555D-01
              MO Center=  5.5D-01, -2.5D-04, -7.7D-02, r^2= 3.4D+00
   Bfn.  Coefficient  Atom+Function         Bfn.  Coefficient  Atom+Function  
  ----- ------------  ---------------      ----- ------------  ---------------
    45      2.116586  6 H  s                 40     -0.990874  5 H  s          
    27     -0.594262  4 O  s                 31      0.559807  4 O  px         
     7     -0.343418  1 O  px                16     -0.329337  2 H  s          
    21     -0.328114  3 H  s                 32      0.323222  4 O  py         
    33      0.244808  4 O  pz                 8     -0.240820  1 O  py         

 Vector   15  Occ=0.000000D+00  E= 7.424203D-01
              MO Center= -1.2D+00, -7.5D-01,  9.9D-02, r^2= 2.1D+00
   Bfn.  Coefficient  Atom+Function         Bfn.  Coefficient  Atom+Function  
  ----- ------------  ---------------      ----- ------------  ---------------
    20      1.019343  3 H  s                 21     -0.814180  3 H  s          
    15     -0.808556  2 H  s                 16      0.582984  2 H  s          
    45      0.413553  6 H  s                  8     -0.364737  1 O  py         
     9     -0.244870  1 O  pz                44     -0.230280  6 H  s          
     5     -0.185828  1 O  py         

 Vector   16  Occ=0.000000D+00  E= 8.011555D-01
              MO Center=  7.4D-01,  3.2D-01,  6.9D-02, r^2= 2.4D+00
   Bfn.  Coefficient  Atom+Function         Bfn.  Coefficient  Atom+Function  
  ----- ------------  ---------------      ----- ------------  ---------------
    45     -1.037048  6 H  s                 44      1.007962  6 H  s          
    39     -0.738667  5 H  s                 40      0.636543  5 H  s          
    15     -0.353362  2 H  s                 16      0.301562  2 H  s          
    31      0.293780  4 O  px                 7      0.203664  1 O  px         
    28      0.197113  4 O  px                33      0.186404  4 O  pz         

 Vector   17  Occ=0.000000D+00  E= 8.076523D-01
              MO Center= -1.3D+00, -9.6D-01,  1.8D-01, r^2= 2.1D+00
   Bfn.  Coefficient  Atom+Function         Bfn.  Coefficient  Atom+Function  
  ----- ------------  ---------------      ----- ------------  ---------------
    15      0.862665  2 H  s                 20      0.769540  3 H  s          
    21     -0.564904  3 H  s                 16     -0.542082  2 H  s          
    44      0.334350  6 H  s                  3      0.315017  1 O  s          
     2     -0.299078  1 O  s                 18     -0.224721  2 H  py         
     6     -0.188805  1 O  pz                23      0.168689  3 H  py         

 Vector   18  Occ=0.000000D+00  E= 8.588090D-01
              MO Center=  1.2D+00,  2.9D-01,  4.0D-01, r^2= 2.3D+00
   Bfn.  Coefficient  Atom+Function         Bfn.  Coefficient  Atom+Function  
  ----- ------------  ---------------      ----- ------------  ---------------
    39      0.984299  5 H  s                 40     -0.626071  5 H  s          
    45     -0.493653  6 H  s                 44      0.473413  6 H  s          
    27      0.327439  4 O  s                 16      0.272657  2 H  s          
    29      0.248399  4 O  py                41      0.237702  5 H  px         
    15     -0.231198  2 H  s                 26     -0.225981  4 O  s          

 Vector   19  Occ=0.000000D+00  E= 1.124309D+00
              MO Center= -4.5D-01, -2.8D-01, -8.5D-02, r^2= 2.6D+00
   Bfn.  Coefficient  Atom+Function         Bfn.  Coefficient  Atom+Function  
  ----- ------------  ---------------      ----- ------------  ---------------
     8      0.741818  1 O  py                 9     -0.715985  1 O  pz         
     6      0.555864  1 O  pz                 3     -0.514401  1 O  s          
    32      0.454115  4 O  py                 5     -0.431276  1 O  py         
    27     -0.376741  4 O  s                 15      0.356660  2 H  s          
    29     -0.308463  4 O  py                40      0.296133  5 H  s          

 Vector   20  Occ=0.000000D+00  E= 1.183853D+00
              MO Center= -4.9D-01, -3.4D-01, -1.3D-01, r^2= 2.9D+00
   Bfn.  Coefficient  Atom+Function         Bfn.  Coefficient  Atom+Function  
  ----- ------------  ---------------      ----- ------------  ---------------
     8      0.987735  1 O  py                 9      0.975108  1 O  pz         
    21     -0.741827  3 H  s                 16      0.703437  2 H  s          
    31     -0.579435  4 O  px                 6     -0.498424  1 O  pz         
     5     -0.399983  1 O  py                28      0.362603  4 O  px         
    20     -0.295874  3 H  s                  7     -0.289919  1 O  px         


 center of mass
 --------------
 x =   0.02626203 y =   0.07172421 z =  -0.05259105

 moments of inertia (a.u.)
 ------------------
          89.602332772244        -114.952146133357         -17.053506092824
        -114.952146133357         175.017457472169         -12.267294136964
         -17.053506092824         -12.267294136964         253.940755664047

  Mulliken analysis of the total density
  --------------------------------------

    Atom       Charge   Shell Charges
 -----------   ------   -------------------------------------------------------
    1 O    8     8.32   2.00  0.83  0.85  2.81  1.81  0.01
    2 H    1     0.83   0.68  0.07  0.08
    3 H    1     0.81   0.65  0.08  0.08
    4 O    8     8.37   2.00  0.83  0.84  2.82  1.87  0.01
    5 H    1     0.86   0.69  0.08  0.08
    6 H    1     0.81   0.64  0.09  0.09

       Multipole analysis of the density wrt the origin
       ------------------------------------------------

     L   x y z        total         open         nuclear
     -   - - -        -----         ----         -------
     0   0 0 0     -0.000000      0.000000     20.000000

     1   1 0 0     -0.659656      0.000000     -0.000000
     1   0 1 0     -1.327981      0.000000      0.000000
     1   0 0 1      0.835257      0.000000     -0.000000

     2   2 0 0     -6.900439      0.000000     98.110869
     2   1 1 0      0.209498      0.000000     64.102601
     2   1 0 1     -0.055510      0.000000      9.388816
     2   0 2 0     -8.842210      0.000000     47.954507
     2   0 1 1      0.316526      0.000000      6.949106
     2   0 0 2     -8.904636      0.000000      4.350967


 Parallel integral file used      14 records with       0 large values

                              NWChem Gradients Module
                              -----------------------



  wavefunction    =   RHF     



                         RHF ENERGY GRADIENTS

    atom               coordinates                        gradient
                 x          y          z           x          y          z
   1 O      -2.052415  -1.337195  -0.347854    0.028230   0.007484  -0.036898
   2 H      -2.321008  -3.137461  -0.456115   -0.000778  -0.019534  -0.003195
   3 H      -2.973068  -0.766346   1.191458   -0.021907   0.016735   0.039605
   4 O       2.171673   1.662899   0.109035    0.002913   0.029065  -0.011599
   5 H       3.402530   1.005701   1.283905    0.014525  -0.007095   0.013938
   6 H       0.937486   0.292473  -0.108694   -0.022982  -0.026655  -0.001851

                 ----------------------------------------
                 |  Time  |  1-e(secs)   |  2-e(secs)   |
                 ----------------------------------------
                 |  CPU   |       0.00   |       0.23   |
                 ----------------------------------------
                 |  WALL  |       0.00   |       0.23   |
                 ----------------------------------------

 Task  times  cpu:        0.6s     wall:        0.6s


                                NWChem Input Module
                                -------------------


 Summary of allocated global arrays
-----------------------------------
  No active global arrays



                         GA Statistics for process    0
                         ------------------------------

       create   destroy   get      put      acc     scatter   gather  read&inc
calls:  249      249     6359     2331     2356        0        0      115     
number of processes/call 0.00e+00 0.00e+00 0.00e+00 0.00e+00 0.00e+00
bytes total:             6.37e+06 3.82e+06 9.06e+05 0.00e+00 0.00e+00 9.20e+02
bytes remote:            0.00e+00 0.00e+00 0.00e+00 0.00e+00 0.00e+00 0.00e+00
Max memory consumed for GA by this process: 239616 bytes

MA_summarize_allocated_blocks: starting scan ...
MA_summarize_allocated_blocks: scan completed: 0 heap blocks, 0 stack blocks
MA usage statistics:

	allocation statistics:
					      heap	     stack
					      ----	     -----
	current number of blocks	         0	         0
	maximum number of blocks	        18	        28
	current total bytes		         0	         0
	maximum total bytes		  12084288	  22510264
	maximum total K-bytes		     12085	     22511
	maximum total M-bytes		        13	        23


                                     CITATION
                                     --------
                Please cite the following reference when publishing
                           results obtained with NWChem:

          E. Aprà, E. J. Bylaska, W. A. de Jong, N. Govind, K. Kowalski,
       T. P. Straatsma, M. Valiev, H. J. J. van Dam, Y. Alexeev, J. Anchell,
       V. Anisimov, F. W. Aquino, R. Atta-Fynn, J. Autschbach, N. P. Bauman,
     J. C. Becca, D. E. Bernholdt, K. Bhaskaran-Nair, S. Bogatko, P. Borowski,
        J. Boschen, J. Brabec, A. Bruner, E. Cauët, Y. Chen, G. N. Chuev,
      C. J. Cramer, J. Daily, M. J. O. Deegan, T. H. Dunning Jr., M. Dupuis,
   K. G. Dyall, G. I. Fann, S. A. Fischer, A. Fonari, H. Früchtl, L. Gagliardi,
      J. Garza, N. Gawande, S. Ghosh, K. Glaesemann, A. W. Götz, J. Hammond,
       V. Helms, E. D. Hermes, K. Hirao, S. Hirata, M. Jacquelin, L. Jensen,
   B. G. Johnson, H. Jónsson, R. A. Kendall, M. Klemm, R. Kobayashi, V. Konkov,
      S. Krishnamoorthy, M. Krishnan, Z. Lin, R. D. Lins, R. J. Littlefield,
      A. J. Logsdail, K. Lopata, W. Ma, A. V. Marenich, J. Martin del Campo,
   D. Mejia-Rodriguez, J. E. Moore, J. M. Mullin, T. Nakajima, D. R. Nascimento,
    J. A. Nichols, P. J. Nichols, J. Nieplocha, A. Otero-de-la-Roza, B. Palmer,
    A. Panyala, T. Pirojsirikul, B. Peng, R. Peverati, J. Pittner, L. Pollack,
   R. M. Richard, P. Sadayappan, G. C. Schatz, W. A. Shelton, D. W. Silverstein,
   D. M. A. Smith, T. A. Soares, D. Song, M. Swart, H. L. Taylor, G. S. Thomas,
            V. Tipparaju, D. G. Truhlar, K. Tsemekhman, T. Van Voorhis,
     Á. Vázquez-Mayagoitia, P. Verma, O. Villa, A. Vishnu, K. D. Vogiatzis,
        D. Wang, J. H. Weare, M. J. Williamson, T. L. Windus, K. Woliński,
        A. T. Wong, Q. Wu, C. Yang, Q. Yu, M. Zacharias, Z. Zhang, Y. Zhao,
                                and R. J. Harrison
                        "NWChem: Past, present, and future
                         J. Chem. Phys. 152, 184102 (2020)
                               doi:10.1063/5.0004997

                                      AUTHORS
                                      -------
     E. Apra, E. J. Bylaska, N. Govind, K. Kowalski, M. Valiev, W. A. de Jong,
      T. P. Straatsma, H. J. J. van Dam, D. Wang, T. L. Windus, N. P. Bauman,
       A. Panyala, J. Hammond, J. Autschbach, K. Bhaskaran-Nair, J. Brabec,
    K. Lopata, S. A. Fischer, S. Krishnamoorthy, M. Jacquelin, W. Ma, M. Klemm,
       O. Villa, Y. Chen, V. Anisimov, F. Aquino, S. Hirata, M. T. Hackler,
           Eric Hermes, L. Jensen, J. E. Moore, J. C. Becca, V. Konjkov,
            D. Mejia-Rodriguez, T. Risthaus, M. Malagoli, A. Marenich,
   A. Otero-de-la-Roza, J. Mullin, P. Nichols, R. Peverati, J. Pittner, Y. Zhao,
        P.-D. Fan, A. Fonari, M. J. Williamson, R. J. Harrison, J. R. Rehr,
      M. Dupuis, D. Silverstein, D. M. A. Smith, J. Nieplocha, V. Tipparaju,
      M. Krishnan, B. E. Van Kuiken, A. Vazquez-Mayagoitia, M. Swart, Q. Wu,
   T. Van Voorhis, A. A. Auer, M. Nooijen, L. D. Crosby, E. Brown, G. Cisneros,
     G. I. Fann, H. Fruchtl, J. Garza, K. Hirao, R. A. Kendall, J. A. Nichols,
       K. Tsemekhman, K. Wolinski, J. Anchell, D. E. Bernholdt, P. Borowski,
       T. Clark, D. Clerc, H. Dachsel, M. J. O. Deegan, K. Dyall, D. Elwood,
      E. Glendening, M. Gutowski, A. C. Hess, J. Jaffe, B. G. Johnson, J. Ju,
        R. Kobayashi, R. Kutteh, Z. Lin, R. Littlefield, X. Long, B. Meng,
      T. Nakajima, S. Niu, L. Pollack, M. Rosing, K. Glaesemann, G. Sandrone,
      M. Stave, H. Taylor, G. Thomas, J. H. van Lenthe, A. T. Wong, Z. Zhang.

 Total times  cpu:        0.6s     wall:        0.6s
