 argument  1 = nwchem/input_2_5_at_worker_5.nw



============================== echo of input deck ==============================
echo
memory 1000 mb
geometry noautosym noautoz
O 0.87715956 1.70409266 0.47858616
H 1.70199937 1.19722607 0.29220265
H 1.16181787 2.60891668 0.65546661
O -2.88801599 -0.0663369 0.05761427
H -2.29024563 0.26724676 -0.65069518
H -3.66545029 0.50362404 0.03495814
end
basis spherical
 * library cc-pvdz
end
task scf gradient
================================================================================


                                         
                                         


             Northwest Computational Chemistry Package (NWChem) 7.0.2
             --------------------------------------------------------


                    Environmental Molecular Sciences Laboratory
                       Pacific Northwest National Laboratory
                                Richland, WA 99352

                              Copyright (c) 1994-2020
                       Pacific Northwest National Laboratory
                            Battelle Memorial Institute

             NWChem is an open-source computational chemistry package
                        distributed under the terms of the
                      Educational Community License (ECL) 2.0
             A copy of the license is included with this distribution
                              in the LICENSE.TXT file

                                  ACKNOWLEDGMENT
                                  --------------

            This software and its documentation were developed at the
            EMSL at Pacific Northwest National Laboratory, a multiprogram
            national laboratory, operated for the U.S. Department of Energy
            by Battelle under Contract Number DE-AC05-76RL01830. Support
            for this work was provided by the Department of Energy Office
            of Biological and Environmental Research, Office of Basic
            Energy Sciences, and the Office of Advanced Scientific Computing.


           Job information
           ---------------

    hostname        = pop-os
    program         = nwchem
    date            = Thu Jul  8 18:19:39 2021

    compiled        = Wed_Jan_06_19:48:08_2021
    source          = /build/nwchem-ksKH2r/nwchem-7.0.2
    nwchem branch   = 7.0.2
    nwchem revision = N/A
    ga revision     = 5.7.1
    use scalapack   = T
    input           = nwchem/input_2_5_at_worker_5.nw
    prefix          = input_2_5_at_worker_5.
    data base       = ./input_2_5_at_worker_5.db
    status          = startup
    nproc           =        1
    time left       =     -1s



           Memory information
           ------------------

    heap     =   32768000 doubles =    250.0 Mbytes
    stack    =   32767997 doubles =    250.0 Mbytes
    global   =   65536000 doubles =    500.0 Mbytes (distinct from heap & stack)
    total    =  131071997 doubles =   1000.0 Mbytes
    verify   = yes
    hardfail = no 


           Directory information
           ---------------------

  0 permanent = .
  0 scratch   = .




                                NWChem Input Module
                                -------------------



 Scaling coordinates for geometry "geometry" by  1.889725989
 (inverse scale =  0.529177249)



                             Geometry "geometry" -> ""
                             -------------------------

 Output coordinates in angstroms (scale by  1.889725989 to convert to a.u.)

  No.       Tag          Charge          X              Y              Z
 ---- ---------------- ---------- -------------- -------------- --------------
    1 O                    8.0000     1.83609607     0.82013968     0.24750938
    2 H                    1.0000     2.66093588     0.31327309     0.06112587
    3 H                    1.0000     2.12075438     1.72496370     0.42438983
    4 O                    8.0000    -1.92907948    -0.95028988    -0.17346251
    5 H                    1.0000    -1.33130912    -0.61670622    -0.88177196
    6 H                    1.0000    -2.70651378    -0.38032894    -0.19611864

      Atomic Mass 
      ----------- 

      O                 15.994910
      H                  1.007825


 Effective nuclear repulsion energy (a.u.)      30.4016494349

            Nuclear Dipole moment (a.u.) 
            ----------------------------
        X                 Y               Z
 ---------------- ---------------- ----------------
    -0.0000000000    -0.0000000000    -0.0000000000


            XYZ format geometry
            -------------------
     6
 geometry
 O                     1.83609607     0.82013968     0.24750938
 H                     2.66093588     0.31327309     0.06112587
 H                     2.12075438     1.72496370     0.42438983
 O                    -1.92907948    -0.95028988    -0.17346251
 H                    -1.33130912    -0.61670622    -0.88177196
 H                    -2.70651378    -0.38032894    -0.19611864

 ==============================================================================
                                internuclear distances
 ------------------------------------------------------------------------------
       center one      |      center two      | atomic units |  angstroms
 ------------------------------------------------------------------------------
    2 H                |   1 O                |     1.86309  |     0.98591
    3 H                |   1 O                |     1.82339  |     0.96490
    5 H                |   4 O                |     1.86146  |     0.98504
    6 H                |   4 O                |     1.82216  |     0.96425
 ------------------------------------------------------------------------------
                         number of included internuclear distances:          4
 ==============================================================================



 ==============================================================================
                                 internuclear angles
 ------------------------------------------------------------------------------
        center 1       |       center 2       |       center 3       |  degrees
 ------------------------------------------------------------------------------
    2 H                |   1 O                |   3 H                |   105.66
    5 H                |   4 O                |   6 H                |   105.80
 ------------------------------------------------------------------------------
                            number of included internuclear angles:          2
 ==============================================================================





 Summary of "ao basis" -> "" (spherical)
 ------------------------------------------------------------------------------
       Tag                 Description            Shells   Functions and Types
 ---------------- ------------------------------  ------  ---------------------
 *                          cc-pvdz                   on all atoms 


                      Basis "ao basis" -> "ao basis" (spherical)
                      -----
  O (Oxygen)
  ----------
            Exponent  Coefficients 
       -------------- ---------------------------------------------------------
  1 S  1.17200000E+04  0.000710
  1 S  1.75900000E+03  0.005470
  1 S  4.00800000E+02  0.027837
  1 S  1.13700000E+02  0.104800
  1 S  3.70300000E+01  0.283062
  1 S  1.32700000E+01  0.448719
  1 S  5.02500000E+00  0.270952
  1 S  1.01300000E+00  0.015458

  2 S  1.17200000E+04 -0.000160
  2 S  1.75900000E+03 -0.001263
  2 S  4.00800000E+02 -0.006267
  2 S  1.13700000E+02 -0.025716
  2 S  3.70300000E+01 -0.070924
  2 S  1.32700000E+01 -0.165411
  2 S  5.02500000E+00 -0.116955
  2 S  1.01300000E+00  0.557368

  3 S  3.02300000E-01  1.000000

  4 P  1.77000000E+01  0.043018
  4 P  3.85400000E+00  0.228913
  4 P  1.04600000E+00  0.508728

  5 P  2.75300000E-01  1.000000

  6 D  1.18500000E+00  1.000000

  H (Hydrogen)
  ------------
            Exponent  Coefficients 
       -------------- ---------------------------------------------------------
  1 S  1.30100000E+01  0.019685
  1 S  1.96200000E+00  0.137977
  1 S  4.44600000E-01  0.478148

  2 S  1.22000000E-01  1.000000

  3 P  7.27000000E-01  1.000000



 Summary of "ao basis" -> "ao basis" (spherical)
 ------------------------------------------------------------------------------
       Tag                 Description            Shells   Functions and Types
 ---------------- ------------------------------  ------  ---------------------
 O                          cc-pvdz                  6       14   3s2p1d
 H                          cc-pvdz                  3        5   2s1p


                                 NWChem SCF Module
                                 -----------------



  ao basis        = "ao basis"
  functions       =    48
  atoms           =     6
  closed shells   =    10
  open shells     =     0
  charge          =   0.00
  wavefunction    = RHF 
  input vectors   = atomic
  output vectors  = ./input_2_5_at_worker_5.movecs
  use symmetry    = F
  symmetry adapt  = F


 Summary of "ao basis" -> "ao basis" (spherical)
 ------------------------------------------------------------------------------
       Tag                 Description            Shells   Functions and Types
 ---------------- ------------------------------  ------  ---------------------
 O                          cc-pvdz                  6       14   3s2p1d
 H                          cc-pvdz                  3        5   2s1p



 Forming initial guess at       0.0s


      Superposition of Atomic Density Guess
      -------------------------------------

 Sum of atomic energies:        -151.52445821

      Non-variational initial energy
      ------------------------------

 Total energy =    -151.780518
 1-e energy   =    -267.702496
 2-e energy   =      85.520328
 HOMO         =      -0.463779
 LUMO         =       0.076771


 Starting SCF solution at       0.1s



 ----------------------------------------------
         Quadratically convergent ROHF

 Convergence threshold     :          1.000E-04
 Maximum no. of iterations :           30
 Final Fock-matrix accuracy:          1.000E-07
 ----------------------------------------------


 Integral file          = ./input_2_5_at_worker_5.aoints.0
 Record size in doubles =  65536        No. of integs per rec  =  43688
 Max. records in memory =     23        Max. records in file   = 400327
 No. of bits per label  =      8        No. of bits per value  =     64


 #quartets = 2.804D+04 #integrals = 3.374D+05 #direct =  0.0% #cached =100.0%


              iter       energy          gnorm     gmax       time
             ----- ------------------- --------- --------- --------
                 1     -151.9802955139  1.17D+00  3.26D-01      0.2
                 2     -152.0458421217  2.49D-01  8.10D-02      0.2
                 3     -152.0505387580  2.16D-02  6.72D-03      0.2
                 4     -152.0505747404  3.44D-04  8.27D-05      0.3
                 5     -152.0505747484  5.17D-06  1.43D-06      0.3


       Final RHF  results 
       ------------------ 

         Total SCF energy =   -152.050574748426
      One-electron energy =   -270.516079100391
      Two-electron energy =     88.063854917045
 Nuclear repulsion energy =     30.401649434920

        Time for solution =      0.2s


             Final eigenvalues
             -----------------

              1      
    1  -20.5549
    2  -20.5400
    3   -1.3287
    4   -1.3145
    5   -0.6936
    6   -0.6797
    7   -0.5626
    8   -0.5483
    9   -0.4933
   10   -0.4787
   11    0.1754
   12    0.2003
   13    0.2520
   14    0.2691
   15    0.7758
   16    0.7935
   17    0.8323
   18    0.8475
   19    1.1631
   20    1.1773

                       ROHF Final Molecular Orbital Analysis
                       -------------------------------------

 Vector    2  Occ=2.000000D+00  E=-2.054001D+01
              MO Center= -1.9D+00, -9.5D-01, -1.7D-01, r^2= 1.5D-02
   Bfn.  Coefficient  Atom+Function         Bfn.  Coefficient  Atom+Function  
  ----- ------------  ---------------      ----- ------------  ---------------
    25      1.000868  4 O  s          

 Vector    3  Occ=2.000000D+00  E=-1.328656D+00
              MO Center=  2.0D+00,  8.8D-01,  2.5D-01, r^2= 5.1D-01
   Bfn.  Coefficient  Atom+Function         Bfn.  Coefficient  Atom+Function  
  ----- ------------  ---------------      ----- ------------  ---------------
     2      0.445003  1 O  s                  3      0.389121  1 O  s          
    20      0.191099  3 H  s                 15      0.179993  2 H  s          

 Vector    4  Occ=2.000000D+00  E=-1.314481D+00
              MO Center= -2.0D+00, -8.2D-01, -2.7D-01, r^2= 5.1D-01
   Bfn.  Coefficient  Atom+Function         Bfn.  Coefficient  Atom+Function  
  ----- ------------  ---------------      ----- ------------  ---------------
    26      0.444888  4 O  s                 27      0.388649  4 O  s          
    44      0.191760  6 H  s                 39      0.179935  5 H  s          

 Vector    5  Occ=2.000000D+00  E=-6.935525D-01
              MO Center=  2.0D+00,  8.9D-01,  2.4D-01, r^2= 7.9D-01
   Bfn.  Coefficient  Atom+Function         Bfn.  Coefficient  Atom+Function  
  ----- ------------  ---------------      ----- ------------  ---------------
     5      0.447536  1 O  py                20      0.329578  3 H  s          
    15     -0.320015  2 H  s                  8      0.206848  1 O  py         
     4     -0.155090  1 O  px         

 Vector    6  Occ=2.000000D+00  E=-6.797233D-01
              MO Center= -2.0D+00, -7.8D-01, -3.2D-01, r^2= 7.9D-01
   Bfn.  Coefficient  Atom+Function         Bfn.  Coefficient  Atom+Function  
  ----- ------------  ---------------      ----- ------------  ---------------
    28      0.432873  4 O  px                44     -0.330237  6 H  s          
    39      0.319757  5 H  s                 30     -0.206255  4 O  pz         
    31      0.199618  4 O  px         

 Vector    7  Occ=2.000000D+00  E=-5.625779D-01
              MO Center=  1.8D+00,  8.0D-01,  2.4D-01, r^2= 7.1D-01
   Bfn.  Coefficient  Atom+Function         Bfn.  Coefficient  Atom+Function  
  ----- ------------  ---------------      ----- ------------  ---------------
     4      0.513006  1 O  px                 7      0.348332  1 O  px         
     3     -0.339892  1 O  s                 15      0.209699  2 H  s          
    20      0.199295  3 H  s                  5      0.183070  1 O  py         

 Vector    8  Occ=2.000000D+00  E=-5.483131D-01
              MO Center= -1.9D+00, -9.8D-01, -1.5D-01, r^2= 7.0D-01
   Bfn.  Coefficient  Atom+Function         Bfn.  Coefficient  Atom+Function  
  ----- ------------  ---------------      ----- ------------  ---------------
    29      0.420107  4 O  py                27     -0.338971  4 O  s          
    30     -0.337565  4 O  pz                32      0.286124  4 O  py         
    33     -0.229915  4 O  pz                39      0.208763  5 H  s          
    44      0.199472  6 H  s          

 Vector    9  Occ=2.000000D+00  E=-4.933044D-01
              MO Center=  1.9D+00,  8.3D-01,  2.5D-01, r^2= 6.0D-01
   Bfn.  Coefficient  Atom+Function         Bfn.  Coefficient  Atom+Function  
  ----- ------------  ---------------      ----- ------------  ---------------
     6      0.614139  1 O  pz                 9      0.482914  1 O  pz         

 Vector   10  Occ=2.000000D+00  E=-4.787001D-01
              MO Center= -1.9D+00, -9.3D-01, -1.9D-01, r^2= 6.0D-01
   Bfn.  Coefficient  Atom+Function         Bfn.  Coefficient  Atom+Function  
  ----- ------------  ---------------      ----- ------------  ---------------
    30      0.415373  4 O  pz                29      0.388409  4 O  py         
    33      0.326891  4 O  pz                32      0.305298  4 O  py         
    28      0.274959  4 O  px                31      0.215700  4 O  px         

 Vector   11  Occ=0.000000D+00  E= 1.753764D-01
              MO Center=  1.7D+00,  7.2D-01,  2.0D-02, r^2= 6.1D+00
   Bfn.  Coefficient  Atom+Function         Bfn.  Coefficient  Atom+Function  
  ----- ------------  ---------------      ----- ------------  ---------------
     3      0.886132  1 O  s                 16     -0.755343  2 H  s          
    21     -0.707208  3 H  s                 40     -0.483571  5 H  s          
    27      0.424411  4 O  s                  7      0.294180  1 O  px         
    45     -0.219750  6 H  s                  4      0.154861  1 O  px         

 Vector   12  Occ=0.000000D+00  E= 2.002858D-01
              MO Center= -1.4D+00, -1.0D-01, -3.7D-01, r^2= 6.8D+00
   Bfn.  Coefficient  Atom+Function         Bfn.  Coefficient  Atom+Function  
  ----- ------------  ---------------      ----- ------------  ---------------
    27      0.891420  4 O  s                 45     -0.891605  6 H  s          
    40     -0.593157  5 H  s                  3     -0.410031  1 O  s          
    21      0.354388  3 H  s                 16      0.351342  2 H  s          
    32      0.247255  4 O  py                33     -0.161097  4 O  pz         

 Vector   13  Occ=0.000000D+00  E= 2.519628D-01
              MO Center=  2.4D+00,  1.1D+00,  2.5D-01, r^2= 3.9D+00
   Bfn.  Coefficient  Atom+Function         Bfn.  Coefficient  Atom+Function  
  ----- ------------  ---------------      ----- ------------  ---------------
    21     -1.435251  3 H  s                 16      1.355500  2 H  s          
     8      0.609793  1 O  py                 5      0.263092  1 O  py         
     7     -0.218140  1 O  px                 9      0.155470  1 O  pz         
    45     -0.152425  6 H  s          

 Vector   14  Occ=0.000000D+00  E= 2.690740D-01
              MO Center= -1.8D+00, -3.8D-01, -6.5D-01, r^2= 4.3D+00
   Bfn.  Coefficient  Atom+Function         Bfn.  Coefficient  Atom+Function  
  ----- ------------  ---------------      ----- ------------  ---------------
    40      1.410389  5 H  s                 45     -1.351471  6 H  s          
    31     -0.582885  4 O  px                33      0.299285  4 O  pz         
    16     -0.274713  2 H  s                 28     -0.249108  4 O  px         

 Vector   15  Occ=0.000000D+00  E= 7.757511D-01
              MO Center=  1.8D+00,  5.5D-01,  9.7D-02, r^2= 3.5D+00
   Bfn.  Coefficient  Atom+Function         Bfn.  Coefficient  Atom+Function  
  ----- ------------  ---------------      ----- ------------  ---------------
    15      1.008117  2 H  s                 16     -0.758178  2 H  s          
    20     -0.728873  3 H  s                 21      0.545940  3 H  s          
     8      0.367366  1 O  py                39      0.366703  5 H  s          
    40     -0.250190  5 H  s                 44     -0.243274  6 H  s          
     5      0.205986  1 O  py                17      0.174400  2 H  px         

 Vector   16  Occ=0.000000D+00  E= 7.935052D-01
              MO Center= -1.2D+00, -4.1D-01, -3.8D-01, r^2= 4.1D+00
   Bfn.  Coefficient  Atom+Function         Bfn.  Coefficient  Atom+Function  
  ----- ------------  ---------------      ----- ------------  ---------------
    39      0.973935  5 H  s                 44     -0.747701  6 H  s          
    40     -0.733655  5 H  s                 45      0.565403  6 H  s          
    20      0.376222  3 H  s                 31     -0.345172  4 O  px         
    21     -0.301926  3 H  s                 15     -0.299223  2 H  s          
    16      0.234551  2 H  s                 28     -0.216954  4 O  px         

 Vector   17  Occ=0.000000D+00  E= 8.323215D-01
              MO Center=  1.7D+00,  9.7D-01,  2.2D-01, r^2= 4.6D+00
   Bfn.  Coefficient  Atom+Function         Bfn.  Coefficient  Atom+Function  
  ----- ------------  ---------------      ----- ------------  ---------------
    20      0.877204  3 H  s                 15      0.612357  2 H  s          
    21     -0.594870  3 H  s                 44      0.437745  6 H  s          
    16     -0.429656  2 H  s                 45     -0.316912  6 H  s          
     3      0.276990  1 O  s                 23      0.270582  3 H  py         
     4     -0.262759  1 O  px                 2     -0.234128  1 O  s          

 Vector   18  Occ=0.000000D+00  E= 8.475268D-01
              MO Center= -1.6D+00, -3.0D-01, -4.0D-01, r^2= 4.0D+00
   Bfn.  Coefficient  Atom+Function         Bfn.  Coefficient  Atom+Function  
  ----- ------------  ---------------      ----- ------------  ---------------
    44      0.852838  6 H  s                 39      0.668083  5 H  s          
    45     -0.574235  6 H  s                 40     -0.474587  5 H  s          
    20     -0.324231  3 H  s                 15     -0.284767  2 H  s          
    27      0.281030  4 O  s                 46     -0.253501  6 H  px         
    26     -0.237094  4 O  s                 29     -0.234381  4 O  py         

 Vector   19  Occ=0.000000D+00  E= 1.163091D+00
              MO Center=  1.2D+00,  5.2D-01,  1.7D-01, r^2= 3.8D+00
   Bfn.  Coefficient  Atom+Function         Bfn.  Coefficient  Atom+Function  
  ----- ------------  ---------------      ----- ------------  ---------------
     7      1.041657  1 O  px                 3      0.646921  1 O  s          
     4     -0.648437  1 O  px                20     -0.473442  3 H  s          
     8      0.458953  1 O  py                33     -0.455095  4 O  pz         
    15     -0.438787  2 H  s                 39     -0.351946  5 H  s          
    30      0.269611  4 O  pz                 5     -0.265539  1 O  py         

 Vector   20  Occ=0.000000D+00  E= 1.177349D+00
              MO Center= -1.5D+00, -8.3D-01, -1.4D-01, r^2= 2.7D+00
   Bfn.  Coefficient  Atom+Function         Bfn.  Coefficient  Atom+Function  
  ----- ------------  ---------------      ----- ------------  ---------------
    32      0.979441  4 O  py                27      0.666103  4 O  s          
    29     -0.612435  4 O  py                33     -0.606899  4 O  pz         
    44     -0.518409  6 H  s                 39     -0.391979  5 H  s          
    30      0.382295  4 O  pz                 7     -0.331202  1 O  px         
    31     -0.332279  4 O  px                 3     -0.214580  1 O  s          


 center of mass
 --------------
 x =  -0.03869428 y =  -0.05416093 z =   0.03081399

 moments of inertia (a.u.)
 ------------------
         111.628814272255        -213.472325216199         -55.073797656170
        -213.472325216199         488.261328357357         -25.999419114921
         -55.073797656170         -25.999419114921         582.326143642369

  Mulliken analysis of the total density
  --------------------------------------

    Atom       Charge   Shell Charges
 -----------   ------   -------------------------------------------------------
    1 O    8     8.33   2.00  0.83  0.84  2.81  1.84  0.01
    2 H    1     0.83   0.67  0.08  0.08
    3 H    1     0.84   0.68  0.07  0.09
    4 O    8     8.33   2.00  0.83  0.84  2.81  1.84  0.01
    5 H    1     0.83   0.67  0.08  0.08
    6 H    1     0.84   0.69  0.07  0.09

       Multipole analysis of the density wrt the origin
       ------------------------------------------------

     L   x y z        total         open         nuclear
     -   - - -        -----         ----         -------
     0   0 0 0     -0.000000      0.000000     20.000000

     1   1 0 0      0.653727      0.000000     -0.000000
     1   0 1 0      0.902530      0.000000     -0.000000
     1   0 0 1     -0.501211      0.000000     -0.000000

     2   2 0 0     -1.249096      0.000000    276.459483
     2   1 1 0     -0.697911      0.000000    118.039873
     2   1 0 1      1.261573      0.000000     32.425190
     2   0 2 0     -9.125419      0.000000     57.865726
     2   0 1 1      0.875900      0.000000     15.399306
     2   0 0 2     -9.163452      0.000000      6.180186


 Parallel integral file used       8 records with       0 large values

                              NWChem Gradients Module
                              -----------------------



  wavefunction    =   RHF     



                         RHF ENERGY GRADIENTS

    atom               coordinates                        gradient
                 x          y          z           x          y          z
   1 O       3.469718   1.549839   0.467725   -0.034981   0.003401   0.005109
   2 H       5.028440   0.592000   0.115511    0.032592  -0.023781  -0.008565
   3 H       4.007645   3.259709   0.801980    0.002754   0.020393   0.004051
   4 O      -3.645432  -1.795787  -0.327797   -0.007683  -0.020213   0.026679
   5 H      -2.515809  -1.165406  -1.666307    0.025464   0.010349  -0.029516
   6 H      -5.114569  -0.718717  -0.370610   -0.018145   0.009850   0.002243

                 ----------------------------------------
                 |  Time  |  1-e(secs)   |  2-e(secs)   |
                 ----------------------------------------
                 |  CPU   |       0.00   |       0.22   |
                 ----------------------------------------
                 |  WALL  |       0.00   |       0.22   |
                 ----------------------------------------

 Task  times  cpu:        0.5s     wall:        0.5s


                                NWChem Input Module
                                -------------------


 Summary of allocated global arrays
-----------------------------------
  No active global arrays



                         GA Statistics for process    0
                         ------------------------------

       create   destroy   get      put      acc     scatter   gather  read&inc
calls:  249      249     6359     2344     2356        0        0      139     
number of processes/call 0.00e+00 0.00e+00 0.00e+00 0.00e+00 0.00e+00
bytes total:             6.37e+06 3.82e+06 9.06e+05 0.00e+00 0.00e+00 1.11e+03
bytes remote:            0.00e+00 0.00e+00 0.00e+00 0.00e+00 0.00e+00 0.00e+00
Max memory consumed for GA by this process: 239616 bytes

MA_summarize_allocated_blocks: starting scan ...
MA_summarize_allocated_blocks: scan completed: 0 heap blocks, 0 stack blocks
MA usage statistics:

	allocation statistics:
					      heap	     stack
					      ----	     -----
	current number of blocks	         0	         0
	maximum number of blocks	        18	        28
	current total bytes		         0	         0
	maximum total bytes		  12084272	  22510280
	maximum total K-bytes		     12085	     22511
	maximum total M-bytes		        13	        23


                                     CITATION
                                     --------
                Please cite the following reference when publishing
                           results obtained with NWChem:

          E. Aprà, E. J. Bylaska, W. A. de Jong, N. Govind, K. Kowalski,
       T. P. Straatsma, M. Valiev, H. J. J. van Dam, Y. Alexeev, J. Anchell,
       V. Anisimov, F. W. Aquino, R. Atta-Fynn, J. Autschbach, N. P. Bauman,
     J. C. Becca, D. E. Bernholdt, K. Bhaskaran-Nair, S. Bogatko, P. Borowski,
        J. Boschen, J. Brabec, A. Bruner, E. Cauët, Y. Chen, G. N. Chuev,
      C. J. Cramer, J. Daily, M. J. O. Deegan, T. H. Dunning Jr., M. Dupuis,
   K. G. Dyall, G. I. Fann, S. A. Fischer, A. Fonari, H. Früchtl, L. Gagliardi,
      J. Garza, N. Gawande, S. Ghosh, K. Glaesemann, A. W. Götz, J. Hammond,
       V. Helms, E. D. Hermes, K. Hirao, S. Hirata, M. Jacquelin, L. Jensen,
   B. G. Johnson, H. Jónsson, R. A. Kendall, M. Klemm, R. Kobayashi, V. Konkov,
      S. Krishnamoorthy, M. Krishnan, Z. Lin, R. D. Lins, R. J. Littlefield,
      A. J. Logsdail, K. Lopata, W. Ma, A. V. Marenich, J. Martin del Campo,
   D. Mejia-Rodriguez, J. E. Moore, J. M. Mullin, T. Nakajima, D. R. Nascimento,
    J. A. Nichols, P. J. Nichols, J. Nieplocha, A. Otero-de-la-Roza, B. Palmer,
    A. Panyala, T. Pirojsirikul, B. Peng, R. Peverati, J. Pittner, L. Pollack,
   R. M. Richard, P. Sadayappan, G. C. Schatz, W. A. Shelton, D. W. Silverstein,
   D. M. A. Smith, T. A. Soares, D. Song, M. Swart, H. L. Taylor, G. S. Thomas,
            V. Tipparaju, D. G. Truhlar, K. Tsemekhman, T. Van Voorhis,
     Á. Vázquez-Mayagoitia, P. Verma, O. Villa, A. Vishnu, K. D. Vogiatzis,
        D. Wang, J. H. Weare, M. J. Williamson, T. L. Windus, K. Woliński,
        A. T. Wong, Q. Wu, C. Yang, Q. Yu, M. Zacharias, Z. Zhang, Y. Zhao,
                                and R. J. Harrison
                        "NWChem: Past, present, and future
                         J. Chem. Phys. 152, 184102 (2020)
                               doi:10.1063/5.0004997

                                      AUTHORS
                                      -------
     E. Apra, E. J. Bylaska, N. Govind, K. Kowalski, M. Valiev, W. A. de Jong,
      T. P. Straatsma, H. J. J. van Dam, D. Wang, T. L. Windus, N. P. Bauman,
       A. Panyala, J. Hammond, J. Autschbach, K. Bhaskaran-Nair, J. Brabec,
    K. Lopata, S. A. Fischer, S. Krishnamoorthy, M. Jacquelin, W. Ma, M. Klemm,
       O. Villa, Y. Chen, V. Anisimov, F. Aquino, S. Hirata, M. T. Hackler,
           Eric Hermes, L. Jensen, J. E. Moore, J. C. Becca, V. Konjkov,
            D. Mejia-Rodriguez, T. Risthaus, M. Malagoli, A. Marenich,
   A. Otero-de-la-Roza, J. Mullin, P. Nichols, R. Peverati, J. Pittner, Y. Zhao,
        P.-D. Fan, A. Fonari, M. J. Williamson, R. J. Harrison, J. R. Rehr,
      M. Dupuis, D. Silverstein, D. M. A. Smith, J. Nieplocha, V. Tipparaju,
      M. Krishnan, B. E. Van Kuiken, A. Vazquez-Mayagoitia, M. Swart, Q. Wu,
   T. Van Voorhis, A. A. Auer, M. Nooijen, L. D. Crosby, E. Brown, G. Cisneros,
     G. I. Fann, H. Fruchtl, J. Garza, K. Hirao, R. A. Kendall, J. A. Nichols,
       K. Tsemekhman, K. Wolinski, J. Anchell, D. E. Bernholdt, P. Borowski,
       T. Clark, D. Clerc, H. Dachsel, M. J. O. Deegan, K. Dyall, D. Elwood,
      E. Glendening, M. Gutowski, A. C. Hess, J. Jaffe, B. G. Johnson, J. Ju,
        R. Kobayashi, R. Kutteh, Z. Lin, R. Littlefield, X. Long, B. Meng,
      T. Nakajima, S. Niu, L. Pollack, M. Rosing, K. Glaesemann, G. Sandrone,
      M. Stave, H. Taylor, G. Thomas, J. H. van Lenthe, A. T. Wong, Z. Zhang.

 Total times  cpu:        0.5s     wall:        0.5s
