 argument  1 = nwchem/input_4_3_at_worker_3.nw



============================== echo of input deck ==============================
echo
memory 1000 mb
geometry noautosym noautoz
O 0.87715956 1.70409266 0.47858616
H 1.70199937 1.19722607 0.29220265
H 1.16181787 2.60891668 0.65546661
O -0.82054445 0.61636011 -1.6312343
H -0.26682713 1.17302621 -1.05309865
H -0.36885969 -0.24447946 -1.58195952
O -0.64071556 -0.48854013 1.6410419
H -0.19915392 0.37247798 1.5285638
H -1.54433112 -0.32408724 1.298356
O -2.88801599 -0.0663369 0.05761427
H -2.29024563 0.26724676 -0.65069518
H -3.66545029 0.50362404 0.03495814
end
basis spherical
 * library cc-pvdz
end
task scf gradient
================================================================================


                                         
                                         


             Northwest Computational Chemistry Package (NWChem) 7.0.2
             --------------------------------------------------------


                    Environmental Molecular Sciences Laboratory
                       Pacific Northwest National Laboratory
                                Richland, WA 99352

                              Copyright (c) 1994-2020
                       Pacific Northwest National Laboratory
                            Battelle Memorial Institute

             NWChem is an open-source computational chemistry package
                        distributed under the terms of the
                      Educational Community License (ECL) 2.0
             A copy of the license is included with this distribution
                              in the LICENSE.TXT file

                                  ACKNOWLEDGMENT
                                  --------------

            This software and its documentation were developed at the
            EMSL at Pacific Northwest National Laboratory, a multiprogram
            national laboratory, operated for the U.S. Department of Energy
            by Battelle under Contract Number DE-AC05-76RL01830. Support
            for this work was provided by the Department of Energy Office
            of Biological and Environmental Research, Office of Basic
            Energy Sciences, and the Office of Advanced Scientific Computing.


           Job information
           ---------------

    hostname        = pop-os
    program         = nwchem
    date            = Thu Jul  8 18:19:54 2021

    compiled        = Wed_Jan_06_19:48:08_2021
    source          = /build/nwchem-ksKH2r/nwchem-7.0.2
    nwchem branch   = 7.0.2
    nwchem revision = N/A
    ga revision     = 5.7.1
    use scalapack   = T
    input           = nwchem/input_4_3_at_worker_3.nw
    prefix          = input_4_3_at_worker_3.
    data base       = ./input_4_3_at_worker_3.db
    status          = startup
    nproc           =        1
    time left       =     -1s



           Memory information
           ------------------

    heap     =   32767998 doubles =    250.0 Mbytes
    stack    =   32767995 doubles =    250.0 Mbytes
    global   =   65536000 doubles =    500.0 Mbytes (distinct from heap & stack)
    total    =  131071993 doubles =   1000.0 Mbytes
    verify   = yes
    hardfail = no 


           Directory information
           ---------------------

  0 permanent = .
  0 scratch   = .




                                NWChem Input Module
                                -------------------



 Scaling coordinates for geometry "geometry" by  1.889725989
 (inverse scale =  0.529177249)



                             Geometry "geometry" -> ""
                             -------------------------

 Output coordinates in angstroms (scale by  1.889725989 to convert to a.u.)

  No.       Tag          Charge          X              Y              Z
 ---- ---------------- ---------- -------------- -------------- --------------
    1 O                    8.0000     1.70835911     1.21212874     0.35628971
    2 H                    1.0000     2.53319892     0.70526215     0.16990620
    3 H                    1.0000     1.99301742     2.11695276     0.53317016
    4 O                    8.0000     0.01065510     0.12439619    -1.75353075
    5 H                    1.0000     0.56437242     0.68106229    -1.17539510
    6 H                    1.0000     0.46233986    -0.73644338    -1.70425597
    7 O                    8.0000     0.19048399    -0.98050405     1.51874545
    8 H                    1.0000     0.63204563    -0.11948594     1.40626735
    9 H                    1.0000    -0.71313157    -0.81605116     1.17605955
   10 O                    8.0000    -2.05681644    -0.55830082    -0.06468218
   11 H                    1.0000    -1.45904608    -0.22471716    -0.77299163
   12 H                    1.0000    -2.83425074     0.01166012    -0.08733831

      Atomic Mass 
      ----------- 

      O                 15.994910
      H                  1.007825


 Effective nuclear repulsion energy (a.u.)     139.4328896027

            Nuclear Dipole moment (a.u.) 
            ----------------------------
        X                 Y               Z
 ---------------- ---------------- ----------------
     0.0000000000    -0.0000000000     0.0000000000


            XYZ format geometry
            -------------------
    12
 geometry
 O                     1.70835911     1.21212874     0.35628971
 H                     2.53319892     0.70526215     0.16990620
 H                     1.99301742     2.11695276     0.53317016
 O                     0.01065510     0.12439619    -1.75353075
 H                     0.56437242     0.68106229    -1.17539510
 H                     0.46233986    -0.73644338    -1.70425597
 O                     0.19048399    -0.98050405     1.51874545
 H                     0.63204563    -0.11948594     1.40626735
 H                    -0.71313157    -0.81605116     1.17605955
 O                    -2.05681644    -0.55830082    -0.06468218
 H                    -1.45904608    -0.22471716    -0.77299163
 H                    -2.83425074     0.01166012    -0.08733831

 ==============================================================================
                                internuclear distances
 ------------------------------------------------------------------------------
       center one      |      center two      | atomic units |  angstroms
 ------------------------------------------------------------------------------
    2 H                |   1 O                |     1.86309  |     0.98591
    3 H                |   1 O                |     1.82339  |     0.96490
    5 H                |   4 O                |     1.84258  |     0.97505
    6 H                |   4 O                |     1.83944  |     0.97339
    8 H                |   7 O                |     1.84089  |     0.97416
    9 H                |   7 O                |     1.85251  |     0.98031
   11 H                |  10 O                |     1.86146  |     0.98504
   12 H                |  10 O                |     1.82216  |     0.96425
 ------------------------------------------------------------------------------
                         number of included internuclear distances:          8
 ==============================================================================



 ==============================================================================
                                 internuclear angles
 ------------------------------------------------------------------------------
        center 1       |       center 2       |       center 3       |  degrees
 ------------------------------------------------------------------------------
    2 H                |   1 O                |   3 H                |   105.66
    5 H                |   4 O                |   6 H                |   102.20
    8 H                |   7 O                |   9 H                |   103.25
   11 H                |  10 O                |  12 H                |   105.80
 ------------------------------------------------------------------------------
                            number of included internuclear angles:          4
 ==============================================================================





 Summary of "ao basis" -> "" (spherical)
 ------------------------------------------------------------------------------
       Tag                 Description            Shells   Functions and Types
 ---------------- ------------------------------  ------  ---------------------
 *                          cc-pvdz                   on all atoms 


                      Basis "ao basis" -> "ao basis" (spherical)
                      -----
  O (Oxygen)
  ----------
            Exponent  Coefficients 
       -------------- ---------------------------------------------------------
  1 S  1.17200000E+04  0.000710
  1 S  1.75900000E+03  0.005470
  1 S  4.00800000E+02  0.027837
  1 S  1.13700000E+02  0.104800
  1 S  3.70300000E+01  0.283062
  1 S  1.32700000E+01  0.448719
  1 S  5.02500000E+00  0.270952
  1 S  1.01300000E+00  0.015458

  2 S  1.17200000E+04 -0.000160
  2 S  1.75900000E+03 -0.001263
  2 S  4.00800000E+02 -0.006267
  2 S  1.13700000E+02 -0.025716
  2 S  3.70300000E+01 -0.070924
  2 S  1.32700000E+01 -0.165411
  2 S  5.02500000E+00 -0.116955
  2 S  1.01300000E+00  0.557368

  3 S  3.02300000E-01  1.000000

  4 P  1.77000000E+01  0.043018
  4 P  3.85400000E+00  0.228913
  4 P  1.04600000E+00  0.508728

  5 P  2.75300000E-01  1.000000

  6 D  1.18500000E+00  1.000000

  H (Hydrogen)
  ------------
            Exponent  Coefficients 
       -------------- ---------------------------------------------------------
  1 S  1.30100000E+01  0.019685
  1 S  1.96200000E+00  0.137977
  1 S  4.44600000E-01  0.478148

  2 S  1.22000000E-01  1.000000

  3 P  7.27000000E-01  1.000000



 Summary of "ao basis" -> "ao basis" (spherical)
 ------------------------------------------------------------------------------
       Tag                 Description            Shells   Functions and Types
 ---------------- ------------------------------  ------  ---------------------
 O                          cc-pvdz                  6       14   3s2p1d
 H                          cc-pvdz                  3        5   2s1p


                                 NWChem SCF Module
                                 -----------------



  ao basis        = "ao basis"
  functions       =    96
  atoms           =    12
  closed shells   =    20
  open shells     =     0
  charge          =   0.00
  wavefunction    = RHF 
  input vectors   = atomic
  output vectors  = ./input_4_3_at_worker_3.movecs
  use symmetry    = F
  symmetry adapt  = F


 Summary of "ao basis" -> "ao basis" (spherical)
 ------------------------------------------------------------------------------
       Tag                 Description            Shells   Functions and Types
 ---------------- ------------------------------  ------  ---------------------
 O                          cc-pvdz                  6       14   3s2p1d
 H                          cc-pvdz                  3        5   2s1p



 Forming initial guess at       0.1s


      Superposition of Atomic Density Guess
      -------------------------------------

 Sum of atomic energies:        -303.04891642

      Non-variational initial energy
      ------------------------------

 Total energy =    -303.766864
 1-e energy   =    -692.637355
 2-e energy   =     249.437601
 HOMO         =      -0.460565
 LUMO         =       0.043950


 Starting SCF solution at       0.7s



 ----------------------------------------------
         Quadratically convergent ROHF

 Convergence threshold     :          1.000E-04
 Maximum no. of iterations :           30
 Final Fock-matrix accuracy:          1.000E-07
 ----------------------------------------------


 Integral file          = ./input_4_3_at_worker_3.aoints.0
 Record size in doubles =  65536        No. of integs per rec  =  43688
 Max. records in memory =    339        Max. records in file   = 400261
 No. of bits per label  =      8        No. of bits per value  =     64


 #quartets = 5.142D+05 #integrals = 6.139D+06 #direct =  0.0% #cached =100.0%


              iter       energy          gnorm     gmax       time
             ----- ------------------- --------- --------- --------
                 1     -304.0171952801  1.50D+00  2.45D-01      2.1
                 2     -304.1237739905  3.34D-01  6.58D-02      2.3
                 3     -304.1329149635  2.71D-02  3.44D-03      2.7
                 4     -304.1329822753  5.27D-04  1.06D-04      3.1
                 5     -304.1329822958  2.25D-06  4.33D-07      3.6


       Final RHF  results 
       ------------------ 

         Total SCF energy =   -304.132982295809
      One-electron energy =   -697.966005731748
      Two-electron energy =    254.400133833207
 Nuclear repulsion energy =    139.432889602731

        Time for solution =      2.9s


             Final eigenvalues
             -----------------

              1      
    1  -20.6158
    2  -20.5685
    3  -20.5354
    4  -20.4923
    5   -1.3904
    6   -1.3495
    7   -1.3161
    8   -1.2721
    9   -0.7531
   10   -0.7077
   11   -0.6917
   12   -0.6541
   13   -0.6250
   14   -0.5848
   15   -0.5626
   16   -0.5418
   17   -0.5157
   18   -0.4978
   19   -0.4714
   20   -0.4371
   21    0.1374
   22    0.1983
   23    0.2146
   24    0.2368
   25    0.3155
   26    0.3233
   27    0.4008
   28    0.4212
   29    0.7032
   30    0.7587

                       ROHF Final Molecular Orbital Analysis
                       -------------------------------------

 Vector    5  Occ=2.000000D+00  E=-1.390419D+00
              MO Center=  1.8D+00,  1.3D+00,  3.3D-01, r^2= 6.3D-01
   Bfn.  Coefficient  Atom+Function         Bfn.  Coefficient  Atom+Function  
  ----- ------------  ---------------      ----- ------------  ---------------
     2      0.442977   1 O  s                 3      0.391669   1 O  s         
    20      0.185481   3 H  s                15      0.175120   2 H  s         

 Vector    6  Occ=2.000000D+00  E=-1.349525D+00
              MO Center=  4.2D-02,  6.8D-02, -1.6D+00, r^2= 1.0D+00
   Bfn.  Coefficient  Atom+Function         Bfn.  Coefficient  Atom+Function  
  ----- ------------  ---------------      ----- ------------  ---------------
    26      0.428275   4 O  s                27      0.380372   4 O  s         
    44      0.178649   6 H  s                39      0.173770   5 H  s         

 Vector    7  Occ=2.000000D+00  E=-1.316089D+00
              MO Center= -1.9D+00, -4.1D-01, -2.0D-01, r^2= 1.1D+00
   Bfn.  Coefficient  Atom+Function         Bfn.  Coefficient  Atom+Function  
  ----- ------------  ---------------      ----- ------------  ---------------
    74      0.426049  10 O  s                75      0.382103  10 O  s         
    92      0.182050  12 H  s                87      0.163242  11 H  s         

 Vector    8  Occ=2.000000D+00  E=-1.272110D+00
              MO Center=  8.3D-02, -8.2D-01,  1.4D+00, r^2= 7.2D-01
   Bfn.  Coefficient  Atom+Function         Bfn.  Coefficient  Atom+Function  
  ----- ------------  ---------------      ----- ------------  ---------------
    50      0.436541   7 O  s                51      0.390510   7 O  s         
    63      0.185033   8 H  s                68      0.175737   9 H  s         

 Vector    9  Occ=2.000000D+00  E=-7.531153D-01
              MO Center=  1.9D+00,  1.3D+00,  3.4D-01, r^2= 8.8D-01
   Bfn.  Coefficient  Atom+Function         Bfn.  Coefficient  Atom+Function  
  ----- ------------  ---------------      ----- ------------  ---------------
     5      0.456826   1 O  py               20      0.329605   3 H  s         
    15     -0.301463   2 H  s                 8      0.217113   1 O  py        

 Vector   10  Occ=2.000000D+00  E=-7.076861D-01
              MO Center=  2.4D-01,  1.5D-01, -1.4D+00, r^2= 1.5D+00
   Bfn.  Coefficient  Atom+Function         Bfn.  Coefficient  Atom+Function  
  ----- ------------  ---------------      ----- ------------  ---------------
    29      0.429630   4 O  py               39      0.308130   5 H  s         
    44     -0.285147   6 H  s                32      0.207090   4 O  py        
    30      0.165507   4 O  pz        

 Vector   11  Occ=2.000000D+00  E=-6.916650D-01
              MO Center= -1.8D+00, -3.6D-01, -2.9D-01, r^2= 1.6D+00
   Bfn.  Coefficient  Atom+Function         Bfn.  Coefficient  Atom+Function  
  ----- ------------  ---------------      ----- ------------  ---------------
    76      0.411712  10 O  px               92     -0.307273  12 H  s         
    87      0.283739  11 H  s                79      0.196193  10 O  px        
    78     -0.180844  10 O  pz        

 Vector   12  Occ=2.000000D+00  E=-6.540540D-01
              MO Center=  4.6D-01, -1.3D-01,  9.2D-01, r^2= 3.0D+00
   Bfn.  Coefficient  Atom+Function         Bfn.  Coefficient  Atom+Function  
  ----- ------------  ---------------      ----- ------------  ---------------
    52      0.315410   7 O  px                4     -0.274944   1 O  px        
    63      0.255793   8 H  s                68     -0.231854   9 H  s         
    53      0.179314   7 O  py                7     -0.172792   1 O  px        
     3      0.158706   1 O  s         

 Vector   13  Occ=2.000000D+00  E=-6.250102D-01
              MO Center=  6.7D-01,  3.9D-01,  4.7D-02, r^2= 3.9D+00
   Bfn.  Coefficient  Atom+Function         Bfn.  Coefficient  Atom+Function  
  ----- ------------  ---------------      ----- ------------  ---------------
     4      0.364008   1 O  px                7      0.240534   1 O  px        
     3     -0.233581   1 O  s                52      0.202519   7 O  px        
    28     -0.183879   4 O  px               27      0.167204   4 O  s         
    68     -0.157603   9 H  s         

 Vector   14  Occ=2.000000D+00  E=-5.848253D-01
              MO Center=  2.7D-01,  2.4D-01, -9.1D-01, r^2= 3.2D+00
   Bfn.  Coefficient  Atom+Function         Bfn.  Coefficient  Atom+Function  
  ----- ------------  ---------------      ----- ------------  ---------------
    28      0.363644   4 O  px               27     -0.258777   4 O  s         
    31      0.239319   4 O  px               30      0.229576   4 O  pz        
     4      0.179450   1 O  px               39      0.169446   5 H  s         
    44      0.159395   6 H  s                33      0.157116   4 O  pz        
     6     -0.155846   1 O  pz               52      0.155619   7 O  px        

 Vector   15  Occ=2.000000D+00  E=-5.625689D-01
              MO Center= -3.0D-01,  7.7D-02,  1.8D-01, r^2= 4.8D+00
   Bfn.  Coefficient  Atom+Function         Bfn.  Coefficient  Atom+Function  
  ----- ------------  ---------------      ----- ------------  ---------------
     6      0.359564   1 O  pz                9      0.279954   1 O  pz        
    77     -0.267649  10 O  py               78      0.233545  10 O  pz        
    75      0.232239  10 O  s                80     -0.175416  10 O  py        
    81      0.160980  10 O  pz               53      0.159813   7 O  py        
    92     -0.156670  12 H  s         

 Vector   16  Occ=2.000000D+00  E=-5.417939D-01
              MO Center=  2.6D-01,  3.8D-01, -1.6D-01, r^2= 4.7D+00
   Bfn.  Coefficient  Atom+Function         Bfn.  Coefficient  Atom+Function  
  ----- ------------  ---------------      ----- ------------  ---------------
     6      0.421493   1 O  pz                9      0.323674   1 O  pz        
    30      0.261701   4 O  pz               77      0.250937  10 O  py        
    33      0.195109   4 O  pz               75     -0.174658  10 O  s         
    80      0.173385  10 O  py        

 Vector   17  Occ=2.000000D+00  E=-5.156705D-01
              MO Center= -8.6D-02, -6.3D-01,  8.0D-01, r^2= 3.3D+00
   Bfn.  Coefficient  Atom+Function         Bfn.  Coefficient  Atom+Function  
  ----- ------------  ---------------      ----- ------------  ---------------
    53      0.388605   7 O  py               56      0.268827   7 O  py        
    51     -0.249258   7 O  s                63      0.189246   8 H  s         
    77      0.186608  10 O  py               78      0.161259  10 O  pz        
     6     -0.158757   1 O  pz               54     -0.150212   7 O  pz        

 Vector   18  Occ=2.000000D+00  E=-4.977654D-01
              MO Center= -4.0D-01, -1.3D-01, -1.1D+00, r^2= 2.6D+00
   Bfn.  Coefficient  Atom+Function         Bfn.  Coefficient  Atom+Function  
  ----- ------------  ---------------      ----- ------------  ---------------
    30      0.413337   4 O  pz               33      0.330683   4 O  pz        
    28     -0.317622   4 O  px               31     -0.242749   4 O  px        
    77     -0.222581  10 O  py               80     -0.166074  10 O  py        

 Vector   19  Occ=2.000000D+00  E=-4.713675D-01
              MO Center= -1.6D+00, -6.4D-01,  2.6D-01, r^2= 2.0D+00
   Bfn.  Coefficient  Atom+Function         Bfn.  Coefficient  Atom+Function  
  ----- ------------  ---------------      ----- ------------  ---------------
    78      0.387490  10 O  pz               77      0.315557  10 O  py        
    81      0.300114  10 O  pz               76      0.258044  10 O  px        
    80      0.258949  10 O  py               79      0.204540  10 O  px        
    53     -0.189426   7 O  py               52      0.178885   7 O  px        

 Vector   20  Occ=2.000000D+00  E=-4.371381D-01
              MO Center=  1.7D-01, -9.5D-01,  1.5D+00, r^2= 7.1D-01
   Bfn.  Coefficient  Atom+Function         Bfn.  Coefficient  Atom+Function  
  ----- ------------  ---------------      ----- ------------  ---------------
    54      0.577378   7 O  pz               57      0.468165   7 O  pz        
    52     -0.169981   7 O  px               53      0.150648   7 O  py        

 Vector   21  Occ=0.000000D+00  E= 1.373669D-01
              MO Center=  2.0D+00,  1.1D+00,  1.2D-01, r^2= 4.5D+00
   Bfn.  Coefficient  Atom+Function         Bfn.  Coefficient  Atom+Function  
  ----- ------------  ---------------      ----- ------------  ---------------
     3      0.893231   1 O  s                16     -0.721744   2 H  s         
    21     -0.711689   3 H  s                45     -0.341332   6 H  s         
    27      0.279915   4 O  s                 7      0.261931   1 O  px        

 Vector   22  Occ=0.000000D+00  E= 1.982926D-01
              MO Center= -4.4D-01,  2.6D-01, -5.0D-01, r^2= 8.9D+00
   Bfn.  Coefficient  Atom+Function         Bfn.  Coefficient  Atom+Function  
  ----- ------------  ---------------      ----- ------------  ---------------
    93     -0.830757  12 H  s                45     -0.812813   6 H  s         
    21      0.763677   3 H  s                75      0.543782  10 O  s         
    27      0.531099   4 O  s                 3     -0.328174   1 O  s         
     8     -0.250148   1 O  py               32     -0.225149   4 O  py        
    79     -0.171428  10 O  px               80      0.164689  10 O  py        

 Vector   23  Occ=0.000000D+00  E= 2.146166D-01
              MO Center=  5.4D-01,  8.5D-01,  1.0D-01, r^2= 1.0D+01
   Bfn.  Coefficient  Atom+Function         Bfn.  Coefficient  Atom+Function  
  ----- ------------  ---------------      ----- ------------  ---------------
    16      1.126326   2 H  s                21     -1.041171   3 H  s         
    93     -0.798016  12 H  s                75      0.506229  10 O  s         
     8      0.440552   1 O  py               45      0.340427   6 H  s         
     7     -0.221292   1 O  px               40     -0.199713   5 H  s         
     5      0.197305   1 O  py               79     -0.186271  10 O  px        

 Vector   24  Occ=0.000000D+00  E= 2.368466D-01
              MO Center=  3.1D-01, -1.2D-01, -7.2D-01, r^2= 8.5D+00
   Bfn.  Coefficient  Atom+Function         Bfn.  Coefficient  Atom+Function  
  ----- ------------  ---------------      ----- ------------  ---------------
    45      0.996823   6 H  s                16     -0.903997   2 H  s         
    93     -0.738747  12 H  s                27     -0.622928   4 O  s         
    21      0.568394   3 H  s                75      0.397180  10 O  s         
     8     -0.302263   1 O  py               32      0.268329   4 O  py        
    79     -0.204934  10 O  px                7      0.200629   1 O  px        

 Vector   25  Occ=0.000000D+00  E= 3.155448D-01
              MO Center=  1.2D-01, -7.8D-02,  1.2D+00, r^2= 4.5D+00
   Bfn.  Coefficient  Atom+Function         Bfn.  Coefficient  Atom+Function  
  ----- ------------  ---------------      ----- ------------  ---------------
    64      1.211801   8 H  s                51     -1.019930   7 O  s         
    69      0.546767   9 H  s                93     -0.502212  12 H  s         
    56     -0.360579   7 O  py               45     -0.322649   6 H  s         
    21     -0.282255   3 H  s                79     -0.236502  10 O  px        
    16     -0.234582   2 H  s                88      0.211595  11 H  s         

 Vector   26  Occ=0.000000D+00  E= 3.233318D-01
              MO Center=  4.2D-01,  7.0D-01, -9.8D-01, r^2= 4.1D+00
   Bfn.  Coefficient  Atom+Function         Bfn.  Coefficient  Atom+Function  
  ----- ------------  ---------------      ----- ------------  ---------------
    40      1.763649   5 H  s                45     -0.948512   6 H  s         
    27     -0.572343   4 O  s                32     -0.486220   4 O  py        
    88      0.479407  11 H  s                21     -0.323999   3 H  s         
    33     -0.322237   4 O  pz               51      0.292482   7 O  s         
    64     -0.292890   8 H  s                93     -0.278481  12 H  s         

 Vector   27  Occ=0.000000D+00  E= 4.007667D-01
              MO Center= -1.1D+00, -6.4D-02, -7.7D-01, r^2= 4.6D+00
   Bfn.  Coefficient  Atom+Function         Bfn.  Coefficient  Atom+Function  
  ----- ------------  ---------------      ----- ------------  ---------------
    88      2.006645  11 H  s                93     -0.879343  12 H  s         
    40     -0.802831   5 H  s                75     -0.612996  10 O  s         
    79     -0.541851  10 O  px               64     -0.510858   8 H  s         
    31      0.391882   4 O  px               81      0.362472  10 O  pz        
    69      0.229622   9 H  s                28      0.226634   4 O  px        

 Vector   28  Occ=0.000000D+00  E= 4.212099D-01
              MO Center= -5.6D-01, -5.6D-01,  1.2D+00, r^2= 4.4D+00
   Bfn.  Coefficient  Atom+Function         Bfn.  Coefficient  Atom+Function  
  ----- ------------  ---------------      ----- ------------  ---------------
    69      2.039373   9 H  s                64     -1.493550   8 H  s         
    88     -0.776219  11 H  s                55      0.659852   7 O  px        
    81     -0.333571  10 O  pz               40      0.315309   5 H  s         
    51     -0.286165   7 O  s                52      0.263185   7 O  px        
    56      0.255437   7 O  py               78     -0.173886  10 O  pz        

 Vector   29  Occ=0.000000D+00  E= 7.032132D-01
              MO Center=  1.2D+00,  7.5D-01, -4.5D-01, r^2= 3.8D+00
   Bfn.  Coefficient  Atom+Function         Bfn.  Coefficient  Atom+Function  
  ----- ------------  ---------------      ----- ------------  ---------------
    15      0.743484   2 H  s                20     -0.704246   3 H  s         
    44      0.645200   6 H  s                40      0.559907   5 H  s         
    16     -0.550428   2 H  s                39     -0.510365   5 H  s         
    21      0.422719   3 H  s                 8      0.406922   1 O  py        
    45     -0.378294   6 H  s                32      0.258044   4 O  py        

 Vector   30  Occ=0.000000D+00  E= 7.587195D-01
              MO Center= -2.9D-01,  7.6D-02, -2.3D-01, r^2= 5.6D+00
   Bfn.  Coefficient  Atom+Function         Bfn.  Coefficient  Atom+Function  
  ----- ------------  ---------------      ----- ------------  ---------------
    88      0.687572  11 H  s                87     -0.632512  11 H  s         
    39      0.614504   5 H  s                40     -0.580346   5 H  s         
    69     -0.577921   9 H  s                92      0.508849  12 H  s         
    64      0.449647   8 H  s                20     -0.424988   3 H  s         
    15      0.391593   2 H  s                93     -0.376915  12 H  s         


 center of mass
 --------------
 x =  -0.03065263 y =  -0.04208857 z =   0.01182305

 moments of inertia (a.u.)
 ------------------
         527.254492463070        -197.840649998139         -63.129384686751
        -197.840649998139         835.188047044272          68.058673753924
         -63.129384686751          68.058673753924         671.066530189996

  Mulliken analysis of the total density
  --------------------------------------

    Atom       Charge   Shell Charges
 -----------   ------   -------------------------------------------------------
    1 O    8     8.31   2.00  0.83  0.84  2.82  1.81  0.01
    2 H    1     0.81   0.65  0.07  0.08
    3 H    1     0.82   0.67  0.06  0.08
    4 O    8     8.35   2.00  0.83  0.84  2.82  1.84  0.01
    5 H    1     0.81   0.65  0.08  0.09
    6 H    1     0.82   0.67  0.07  0.08
    7 O    8     8.41   2.00  0.83  0.84  2.82  1.91  0.01
    8 H    1     0.85   0.67  0.09  0.09
    9 H    1     0.81   0.64  0.09  0.09
   10 O    8     8.37   2.00  0.83  0.84  2.83  1.85  0.01
   11 H    1     0.80   0.62  0.09  0.09
   12 H    1     0.84   0.69  0.07  0.08

       Multipole analysis of the density wrt the origin
       ------------------------------------------------

     L   x y z        total         open         nuclear
     -   - - -        -----         ----         -------
     0   0 0 0     -0.000000      0.000000     40.000000

     1   1 0 0      1.240239      0.000000      0.000000
     1   0 1 0      1.661485      0.000000     -0.000000
     1   0 0 1     -0.585140      0.000000      0.000000

     2   2 0 0     -9.056591      0.000000    283.808121
     2   1 1 0      1.412170      0.000000    111.131035
     2   1 0 1     -0.679878      0.000000     34.160119
     2   0 2 0    -17.580909      0.000000    102.769790
     2   0 1 1      4.878203      0.000000    -32.733349
     2   0 0 2    -24.354450      0.000000    188.072603


 Parallel integral file used     141 records with       0 large values

                              NWChem Gradients Module
                              -----------------------



  wavefunction    =   RHF     



                         RHF ENERGY GRADIENTS

    atom               coordinates                        gradient
                 x          y          z           x          y          z
   1 O       3.228331   2.290591   0.673290   -0.038160  -0.000497   0.007373
   2 H       4.787052   1.332752   0.321076    0.030200  -0.020977  -0.009548
   3 H       3.766257   4.000461   1.007546    0.003897   0.017910   0.003230
   4 O       0.020135   0.235075  -3.313693   -0.031539   0.008580  -0.012627
   5 H       1.066509   1.287021  -2.221175    0.015478   0.012264   0.012877
   6 H       0.873696  -1.391676  -3.220577    0.014468  -0.021288   0.001905
   7 O       0.359963  -1.852884   2.870013    0.010013  -0.030280   0.011556
   8 H       1.194393  -0.225796   2.657460    0.014574   0.026719  -0.004756
   9 H      -1.347623  -1.542113   2.222430   -0.026619   0.007839  -0.010517
  10 O      -3.886819  -1.055036  -0.122232    0.004981  -0.022864   0.020682
  11 H      -2.757197  -0.424654  -1.460742    0.019360   0.010685  -0.020048
  12 H      -5.355957   0.022034  -0.165045   -0.016653   0.011908  -0.000128

                 ----------------------------------------
                 |  Time  |  1-e(secs)   |  2-e(secs)   |
                 ----------------------------------------
                 |  CPU   |       0.02   |       1.67   |
                 ----------------------------------------
                 |  WALL  |       0.02   |       1.68   |
                 ----------------------------------------

 Task  times  cpu:        5.4s     wall:        5.4s


                                NWChem Input Module
                                -------------------


 Summary of allocated global arrays
-----------------------------------
  No active global arrays



                         GA Statistics for process    0
                         ------------------------------

       create   destroy   get      put      acc     scatter   gather  read&inc
calls:  268      268     1.11e+04 5683     4684        0        0      167     
number of processes/call 0.00e+00 0.00e+00 0.00e+00 0.00e+00 0.00e+00
bytes total:             2.58e+07 1.54e+07 3.80e+06 0.00e+00 0.00e+00 1.34e+03
bytes remote:            0.00e+00 0.00e+00 0.00e+00 0.00e+00 0.00e+00 0.00e+00
Max memory consumed for GA by this process: 958464 bytes

MA_summarize_allocated_blocks: starting scan ...
MA_summarize_allocated_blocks: scan completed: 0 heap blocks, 0 stack blocks
MA usage statistics:

	allocation statistics:
					      heap	     stack
					      ----	     -----
	current number of blocks	         0	         0
	maximum number of blocks	        18	        28
	current total bytes		         0	         0
	maximum total bytes		 177770832	  26178744
	maximum total K-bytes		    177771	     26179
	maximum total M-bytes		       178	        27


                                     CITATION
                                     --------
                Please cite the following reference when publishing
                           results obtained with NWChem:

          E. Aprà, E. J. Bylaska, W. A. de Jong, N. Govind, K. Kowalski,
       T. P. Straatsma, M. Valiev, H. J. J. van Dam, Y. Alexeev, J. Anchell,
       V. Anisimov, F. W. Aquino, R. Atta-Fynn, J. Autschbach, N. P. Bauman,
     J. C. Becca, D. E. Bernholdt, K. Bhaskaran-Nair, S. Bogatko, P. Borowski,
        J. Boschen, J. Brabec, A. Bruner, E. Cauët, Y. Chen, G. N. Chuev,
      C. J. Cramer, J. Daily, M. J. O. Deegan, T. H. Dunning Jr., M. Dupuis,
   K. G. Dyall, G. I. Fann, S. A. Fischer, A. Fonari, H. Früchtl, L. Gagliardi,
      J. Garza, N. Gawande, S. Ghosh, K. Glaesemann, A. W. Götz, J. Hammond,
       V. Helms, E. D. Hermes, K. Hirao, S. Hirata, M. Jacquelin, L. Jensen,
   B. G. Johnson, H. Jónsson, R. A. Kendall, M. Klemm, R. Kobayashi, V. Konkov,
      S. Krishnamoorthy, M. Krishnan, Z. Lin, R. D. Lins, R. J. Littlefield,
      A. J. Logsdail, K. Lopata, W. Ma, A. V. Marenich, J. Martin del Campo,
   D. Mejia-Rodriguez, J. E. Moore, J. M. Mullin, T. Nakajima, D. R. Nascimento,
    J. A. Nichols, P. J. Nichols, J. Nieplocha, A. Otero-de-la-Roza, B. Palmer,
    A. Panyala, T. Pirojsirikul, B. Peng, R. Peverati, J. Pittner, L. Pollack,
   R. M. Richard, P. Sadayappan, G. C. Schatz, W. A. Shelton, D. W. Silverstein,
   D. M. A. Smith, T. A. Soares, D. Song, M. Swart, H. L. Taylor, G. S. Thomas,
            V. Tipparaju, D. G. Truhlar, K. Tsemekhman, T. Van Voorhis,
     Á. Vázquez-Mayagoitia, P. Verma, O. Villa, A. Vishnu, K. D. Vogiatzis,
        D. Wang, J. H. Weare, M. J. Williamson, T. L. Windus, K. Woliński,
        A. T. Wong, Q. Wu, C. Yang, Q. Yu, M. Zacharias, Z. Zhang, Y. Zhao,
                                and R. J. Harrison
                        "NWChem: Past, present, and future
                         J. Chem. Phys. 152, 184102 (2020)
                               doi:10.1063/5.0004997

                                      AUTHORS
                                      -------
     E. Apra, E. J. Bylaska, N. Govind, K. Kowalski, M. Valiev, W. A. de Jong,
      T. P. Straatsma, H. J. J. van Dam, D. Wang, T. L. Windus, N. P. Bauman,
       A. Panyala, J. Hammond, J. Autschbach, K. Bhaskaran-Nair, J. Brabec,
    K. Lopata, S. A. Fischer, S. Krishnamoorthy, M. Jacquelin, W. Ma, M. Klemm,
       O. Villa, Y. Chen, V. Anisimov, F. Aquino, S. Hirata, M. T. Hackler,
           Eric Hermes, L. Jensen, J. E. Moore, J. C. Becca, V. Konjkov,
            D. Mejia-Rodriguez, T. Risthaus, M. Malagoli, A. Marenich,
   A. Otero-de-la-Roza, J. Mullin, P. Nichols, R. Peverati, J. Pittner, Y. Zhao,
        P.-D. Fan, A. Fonari, M. J. Williamson, R. J. Harrison, J. R. Rehr,
      M. Dupuis, D. Silverstein, D. M. A. Smith, J. Nieplocha, V. Tipparaju,
      M. Krishnan, B. E. Van Kuiken, A. Vazquez-Mayagoitia, M. Swart, Q. Wu,
   T. Van Voorhis, A. A. Auer, M. Nooijen, L. D. Crosby, E. Brown, G. Cisneros,
     G. I. Fann, H. Fruchtl, J. Garza, K. Hirao, R. A. Kendall, J. A. Nichols,
       K. Tsemekhman, K. Wolinski, J. Anchell, D. E. Bernholdt, P. Borowski,
       T. Clark, D. Clerc, H. Dachsel, M. J. O. Deegan, K. Dyall, D. Elwood,
      E. Glendening, M. Gutowski, A. C. Hess, J. Jaffe, B. G. Johnson, J. Ju,
        R. Kobayashi, R. Kutteh, Z. Lin, R. Littlefield, X. Long, B. Meng,
      T. Nakajima, S. Niu, L. Pollack, M. Rosing, K. Glaesemann, G. Sandrone,
      M. Stave, H. Taylor, G. Thomas, J. H. van Lenthe, A. T. Wong, Z. Zhang.

 Total times  cpu:        5.4s     wall:        5.5s
