 argument  1 = nwchem/input_3_7.nw



============================== echo of input deck ==============================
echo
memory 1000 mb
geometry noautosym noautoz
O 0.87715956 1.70409266 0.47858616
H 1.70199937 1.19722607 0.29220265
H 1.16181787 2.60891668 0.65546661
O -0.64071556 -0.48854013 1.6410419
H -0.19915392 0.37247798 1.5285638
H -1.54433112 -0.32408724 1.298356
O -2.88801599 -0.0663369 0.05761427
H -2.29024563 0.26724676 -0.65069518
H -3.66545029 0.50362404 0.03495814
end
basis spherical
 * library cc-pvdz
end
task scf gradient
================================================================================


                                         
                                         


             Northwest Computational Chemistry Package (NWChem) 7.0.2
             --------------------------------------------------------


                    Environmental Molecular Sciences Laboratory
                       Pacific Northwest National Laboratory
                                Richland, WA 99352

                              Copyright (c) 1994-2020
                       Pacific Northwest National Laboratory
                            Battelle Memorial Institute

             NWChem is an open-source computational chemistry package
                        distributed under the terms of the
                      Educational Community License (ECL) 2.0
             A copy of the license is included with this distribution
                              in the LICENSE.TXT file

                                  ACKNOWLEDGMENT
                                  --------------

            This software and its documentation were developed at the
            EMSL at Pacific Northwest National Laboratory, a multiprogram
            national laboratory, operated for the U.S. Department of Energy
            by Battelle under Contract Number DE-AC05-76RL01830. Support
            for this work was provided by the Department of Energy Office
            of Biological and Environmental Research, Office of Basic
            Energy Sciences, and the Office of Advanced Scientific Computing.


           Job information
           ---------------

    hostname        = pop-os
    program         = nwchem
    date            = Tue Jul  6 14:07:02 2021

    compiled        = Wed_Jan_06_19:48:08_2021
    source          = /build/nwchem-ksKH2r/nwchem-7.0.2
    nwchem branch   = 7.0.2
    nwchem revision = N/A
    ga revision     = 5.7.1
    use scalapack   = T
    input           = nwchem/input_3_7.nw
    prefix          = input_3_7.
    data base       = ./input_3_7.db
    status          = startup
    nproc           =        1
    time left       =     -1s



           Memory information
           ------------------

    heap     =   32767996 doubles =    250.0 Mbytes
    stack    =   32768001 doubles =    250.0 Mbytes
    global   =   65536000 doubles =    500.0 Mbytes (distinct from heap & stack)
    total    =  131071997 doubles =   1000.0 Mbytes
    verify   = yes
    hardfail = no 


           Directory information
           ---------------------

  0 permanent = .
  0 scratch   = .




                                NWChem Input Module
                                -------------------



 Scaling coordinates for geometry "geometry" by  1.889725989
 (inverse scale =  0.529177249)



                             Geometry "geometry" -> ""
                             -------------------------

 Output coordinates in angstroms (scale by  1.889725989 to convert to a.u.)

  No.       Tag          Charge          X              Y              Z
 ---- ---------------- ---------- -------------- -------------- --------------
    1 O                    8.0000     1.74542421     1.24345502    -0.20730686
    2 H                    1.0000     2.57026402     0.73658843    -0.39369037
    3 H                    1.0000     2.03008252     2.14827904    -0.03042641
    4 O                    8.0000     0.22754909    -0.94917777     0.95514888
    5 H                    1.0000     0.66911073    -0.08815966     0.84267078
    6 H                    1.0000    -0.67606647    -0.78472488     0.61246298
    7 O                    8.0000    -2.01975134    -0.52697454    -0.62827875
    8 H                    1.0000    -1.42198098    -0.19339088    -1.33658820
    9 H                    1.0000    -2.79718564     0.04298640    -0.65093488

      Atomic Mass 
      ----------- 

      O                 15.994910
      H                  1.007825


 Effective nuclear repulsion energy (a.u.)      76.8439873114

            Nuclear Dipole moment (a.u.) 
            ----------------------------
        X                 Y               Z
 ---------------- ---------------- ----------------
     0.0000000000     0.0000000000     0.0000000000


            XYZ format geometry
            -------------------
     9
 geometry
 O                     1.74542421     1.24345502    -0.20730686
 H                     2.57026402     0.73658843    -0.39369037
 H                     2.03008252     2.14827904    -0.03042641
 O                     0.22754909    -0.94917777     0.95514888
 H                     0.66911073    -0.08815966     0.84267078
 H                    -0.67606647    -0.78472488     0.61246298
 O                    -2.01975134    -0.52697454    -0.62827875
 H                    -1.42198098    -0.19339088    -1.33658820
 H                    -2.79718564     0.04298640    -0.65093488

 ==============================================================================
                                internuclear distances
 ------------------------------------------------------------------------------
       center one      |      center two      | atomic units |  angstroms
 ------------------------------------------------------------------------------
    2 H                |   1 O                |     1.86309  |     0.98591
    3 H                |   1 O                |     1.82339  |     0.96490
    5 H                |   4 O                |     1.84089  |     0.97416
    6 H                |   4 O                |     1.85251  |     0.98031
    8 H                |   7 O                |     1.86146  |     0.98504
    9 H                |   7 O                |     1.82216  |     0.96425
 ------------------------------------------------------------------------------
                         number of included internuclear distances:          6
 ==============================================================================



 ==============================================================================
                                 internuclear angles
 ------------------------------------------------------------------------------
        center 1       |       center 2       |       center 3       |  degrees
 ------------------------------------------------------------------------------
    2 H                |   1 O                |   3 H                |   105.66
    5 H                |   4 O                |   6 H                |   103.25
    8 H                |   7 O                |   9 H                |   105.80
 ------------------------------------------------------------------------------
                            number of included internuclear angles:          3
 ==============================================================================





 Summary of "ao basis" -> "" (spherical)
 ------------------------------------------------------------------------------
       Tag                 Description            Shells   Functions and Types
 ---------------- ------------------------------  ------  ---------------------
 *                          cc-pvdz                   on all atoms 


                      Basis "ao basis" -> "ao basis" (spherical)
                      -----
  O (Oxygen)
  ----------
            Exponent  Coefficients 
       -------------- ---------------------------------------------------------
  1 S  1.17200000E+04  0.000710
  1 S  1.75900000E+03  0.005470
  1 S  4.00800000E+02  0.027837
  1 S  1.13700000E+02  0.104800
  1 S  3.70300000E+01  0.283062
  1 S  1.32700000E+01  0.448719
  1 S  5.02500000E+00  0.270952
  1 S  1.01300000E+00  0.015458

  2 S  1.17200000E+04 -0.000160
  2 S  1.75900000E+03 -0.001263
  2 S  4.00800000E+02 -0.006267
  2 S  1.13700000E+02 -0.025716
  2 S  3.70300000E+01 -0.070924
  2 S  1.32700000E+01 -0.165411
  2 S  5.02500000E+00 -0.116955
  2 S  1.01300000E+00  0.557368

  3 S  3.02300000E-01  1.000000

  4 P  1.77000000E+01  0.043018
  4 P  3.85400000E+00  0.228913
  4 P  1.04600000E+00  0.508728

  5 P  2.75300000E-01  1.000000

  6 D  1.18500000E+00  1.000000

  H (Hydrogen)
  ------------
            Exponent  Coefficients 
       -------------- ---------------------------------------------------------
  1 S  1.30100000E+01  0.019685
  1 S  1.96200000E+00  0.137977
  1 S  4.44600000E-01  0.478148

  2 S  1.22000000E-01  1.000000

  3 P  7.27000000E-01  1.000000



 Summary of "ao basis" -> "ao basis" (spherical)
 ------------------------------------------------------------------------------
       Tag                 Description            Shells   Functions and Types
 ---------------- ------------------------------  ------  ---------------------
 O                          cc-pvdz                  6       14   3s2p1d
 H                          cc-pvdz                  3        5   2s1p


                                 NWChem SCF Module
                                 -----------------



  ao basis        = "ao basis"
  functions       =    72
  atoms           =     9
  closed shells   =    15
  open shells     =     0
  charge          =   0.00
  wavefunction    = RHF 
  input vectors   = atomic
  output vectors  = ./input_3_7.movecs
  use symmetry    = F
  symmetry adapt  = F


 Summary of "ao basis" -> "ao basis" (spherical)
 ------------------------------------------------------------------------------
       Tag                 Description            Shells   Functions and Types
 ---------------- ------------------------------  ------  ---------------------
 O                          cc-pvdz                  6       14   3s2p1d
 H                          cc-pvdz                  3        5   2s1p



 Forming initial guess at       0.0s


      Superposition of Atomic Density Guess
      -------------------------------------

 Sum of atomic energies:        -227.28668731

      Non-variational initial energy
      ------------------------------

 Total energy =    -227.761239
 1-e energy   =    -464.030269
 2-e energy   =     159.425043
 HOMO         =      -0.461250
 LUMO         =       0.057309


 Starting SCF solution at       0.3s



 ----------------------------------------------
         Quadratically convergent ROHF

 Convergence threshold     :          1.000E-04
 Maximum no. of iterations :           30
 Final Fock-matrix accuracy:          1.000E-07
 ----------------------------------------------


 Integral file          = ./input_3_7.aoints.0
 Record size in doubles =  65536        No. of integs per rec  =  43688
 Max. records in memory =    110        Max. records in file   = 400690
 No. of bits per label  =      8        No. of bits per value  =     64


 #quartets = 1.606D+05 #integrals = 2.007D+06 #direct =  0.0% #cached =100.0%


              iter       energy          gnorm     gmax       time
             ----- ------------------- --------- --------- --------
                 1     -227.9948507483  1.35D+00  2.81D-01      0.7
                 2     -228.0818604690  2.97D-01  5.81D-02      0.8
                 3     -228.0889061283  2.47D-02  4.49D-03      0.9
                 4     -228.0889586467  4.45D-04  1.01D-04      1.1
                 5     -228.0889586600  7.88D-06  1.80D-06      1.2


       Final RHF  results 
       ------------------ 

         Total SCF energy =   -228.088958660010
      One-electron energy =   -468.235712439211
      Two-electron energy =    163.302766467781
 Nuclear repulsion energy =     76.843987311420

        Time for solution =      0.9s


             Final eigenvalues
             -----------------

              1      
    1  -20.5798
    2  -20.5744
    3  -20.4857
    4   -1.3538
    5   -1.3503
    6   -1.2661
    7   -0.7178
    8   -0.7148
    9   -0.6456
   10   -0.5949
   11   -0.5715
   12   -0.5288
   13   -0.5129
   14   -0.4878
   15   -0.4309
   16    0.1596
   17    0.1817
   18    0.2406
   19    0.2497
   20    0.3243
   21    0.4205
   22    0.7520
   23    0.7596
   24    0.8122
   25    0.8249

                       ROHF Final Molecular Orbital Analysis
                       -------------------------------------

 Vector    4  Occ=2.000000D+00  E=-1.353794D+00
              MO Center=  1.8D+00,  1.3D+00, -2.1D-01, r^2= 7.3D-01
   Bfn.  Coefficient  Atom+Function         Bfn.  Coefficient  Atom+Function  
  ----- ------------  ---------------      ----- ------------  ---------------
     2      0.442610  1 O  s                  3      0.389084  1 O  s          
    20      0.188052  3 H  s                 15      0.176803  2 H  s          

 Vector    5  Occ=2.000000D+00  E=-1.350289D+00
              MO Center= -2.0D+00, -3.8D-01, -7.0D-01, r^2= 7.6D-01
   Bfn.  Coefficient  Atom+Function         Bfn.  Coefficient  Atom+Function  
  ----- ------------  ---------------      ----- ------------  ---------------
    50      0.441634  7 O  s                 51      0.388932  7 O  s          
    68      0.187081  9 H  s                 63      0.176281  8 H  s          

 Vector    6  Occ=2.000000D+00  E=-1.266101D+00
              MO Center=  1.6D-01, -8.0D-01,  8.8D-01, r^2= 6.0D-01
   Bfn.  Coefficient  Atom+Function         Bfn.  Coefficient  Atom+Function  
  ----- ------------  ---------------      ----- ------------  ---------------
    26      0.439967  4 O  s                 27      0.392232  4 O  s          
    39      0.184793  5 H  s                 44      0.180115  6 H  s          

 Vector    7  Occ=2.000000D+00  E=-7.178475D-01
              MO Center=  1.8D+00,  1.2D+00, -2.1D-01, r^2= 1.5D+00
   Bfn.  Coefficient  Atom+Function         Bfn.  Coefficient  Atom+Function  
  ----- ------------  ---------------      ----- ------------  ---------------
     5      0.444719  1 O  py                20      0.323586  3 H  s          
    15     -0.303629  2 H  s                  8      0.208431  1 O  py         

 Vector    8  Occ=2.000000D+00  E=-7.148299D-01
              MO Center= -1.9D+00, -3.0D-01, -7.1D-01, r^2= 1.6D+00
   Bfn.  Coefficient  Atom+Function         Bfn.  Coefficient  Atom+Function  
  ----- ------------  ---------------      ----- ------------  ---------------
    52      0.432582  7 O  px                68     -0.325969  9 H  s          
    63      0.298499  8 H  s                 55      0.203401  7 O  px         
    54     -0.182080  7 O  pz         

 Vector    9  Occ=2.000000D+00  E=-6.456112D-01
              MO Center= -3.3D-02, -5.0D-01,  5.0D-01, r^2= 2.4D+00
   Bfn.  Coefficient  Atom+Function         Bfn.  Coefficient  Atom+Function  
  ----- ------------  ---------------      ----- ------------  ---------------
    28      0.357622  4 O  px                44     -0.271459  6 H  s          
    39      0.269068  5 H  s                 54     -0.199388  7 O  pz         
    29      0.180992  4 O  py                31      0.165612  4 O  px         
     4     -0.160160  1 O  px         

 Vector   10  Occ=2.000000D+00  E=-5.948582D-01
              MO Center=  5.3D-01,  5.6D-01, -2.3D-01, r^2= 4.3D+00
   Bfn.  Coefficient  Atom+Function         Bfn.  Coefficient  Atom+Function  
  ----- ------------  ---------------      ----- ------------  ---------------
     4      0.408660  1 O  px                 7      0.272003  1 O  px         
     3     -0.265913  1 O  s                 54     -0.224803  7 O  pz         
    53      0.184592  7 O  py                15      0.168784  2 H  s          
    51     -0.164857  7 O  s                 20      0.157506  3 H  s          
    57     -0.152921  7 O  pz         

 Vector   11  Occ=2.000000D+00  E=-5.714743D-01
              MO Center= -6.7D-01, -1.7D-01, -2.2D-01, r^2= 4.2D+00
   Bfn.  Coefficient  Atom+Function         Bfn.  Coefficient  Atom+Function  
  ----- ------------  ---------------      ----- ------------  ---------------
    53      0.356465  7 O  py                51     -0.266392  7 O  s          
     4     -0.249595  1 O  px                56      0.240334  7 O  py         
    54     -0.201890  7 O  pz                28     -0.200855  4 O  px         
     3      0.170611  1 O  s                  7     -0.169193  1 O  px         
    68      0.158526  9 H  s                 39     -0.150515  5 H  s          

 Vector   12  Occ=2.000000D+00  E=-5.288146D-01
              MO Center= -2.5D-01, -1.0D-01, -9.0D-02, r^2= 4.6D+00
   Bfn.  Coefficient  Atom+Function         Bfn.  Coefficient  Atom+Function  
  ----- ------------  ---------------      ----- ------------  ---------------
     6      0.322888  1 O  pz                53      0.312636  7 O  py         
     9      0.251354  1 O  pz                56      0.239239  7 O  py         
    29      0.236749  4 O  py                54      0.206950  7 O  pz         
    27     -0.188417  4 O  s                 57      0.166222  7 O  pz         
    32      0.159903  4 O  py         

 Vector   13  Occ=2.000000D+00  E=-5.129069D-01
              MO Center=  6.7D-01,  6.2D-01, -2.1D-01, r^2= 4.2D+00
   Bfn.  Coefficient  Atom+Function         Bfn.  Coefficient  Atom+Function  
  ----- ------------  ---------------      ----- ------------  ---------------
     6      0.498187  1 O  pz                 9      0.390830  1 O  pz         
    54     -0.217476  7 O  pz                53     -0.185695  7 O  py         
    57     -0.169904  7 O  pz         

 Vector   14  Occ=2.000000D+00  E=-4.877735D-01
              MO Center= -4.1D-01, -7.5D-01,  4.1D-01, r^2= 2.7D+00
   Bfn.  Coefficient  Atom+Function         Bfn.  Coefficient  Atom+Function  
  ----- ------------  ---------------      ----- ------------  ---------------
    29      0.367241  4 O  py                54     -0.267990  7 O  pz         
    32      0.261438  4 O  py                28     -0.217513  4 O  px         
    27     -0.212142  4 O  s                 57     -0.202279  7 O  pz         
    52     -0.180871  7 O  px                44      0.175701  6 H  s          
    53     -0.169283  7 O  py                31     -0.154321  4 O  px         

 Vector   15  Occ=2.000000D+00  E=-4.308502D-01
              MO Center=  2.2D-01, -9.2D-01,  9.5D-01, r^2= 6.5D-01
   Bfn.  Coefficient  Atom+Function         Bfn.  Coefficient  Atom+Function  
  ----- ------------  ---------------      ----- ------------  ---------------
    30      0.576203  4 O  pz                33      0.466942  4 O  pz         
    28     -0.178105  4 O  px                29      0.155412  4 O  py         

 Vector   16  Occ=0.000000D+00  E= 1.595737D-01
              MO Center=  1.0D+00,  9.9D-01, -4.2D-01, r^2= 7.4D+00
   Bfn.  Coefficient  Atom+Function         Bfn.  Coefficient  Atom+Function  
  ----- ------------  ---------------      ----- ------------  ---------------
     3      0.806545  1 O  s                 21     -0.688885  3 H  s          
    16     -0.598920  2 H  s                 51      0.526543  7 O  s          
    64     -0.490349  8 H  s                 69     -0.354023  9 H  s          
     7      0.234589  1 O  px                27      0.164634  4 O  s          
    40     -0.153887  5 H  s          

 Vector   17  Occ=0.000000D+00  E= 1.816535D-01
              MO Center= -9.7D-01,  5.4D-01, -7.0D-01, r^2= 8.5D+00
   Bfn.  Coefficient  Atom+Function         Bfn.  Coefficient  Atom+Function  
  ----- ------------  ---------------      ----- ------------  ---------------
    69     -0.870024  9 H  s                 51      0.808343  7 O  s          
     3     -0.528452  1 O  s                 21      0.498728  3 H  s          
    64     -0.487399  8 H  s                 16      0.420483  2 H  s          
    56      0.228617  7 O  py                 7     -0.175246  1 O  px         

 Vector   18  Occ=0.000000D+00  E= 2.406405D-01
              MO Center=  2.3D+00,  1.4D+00, -2.4D-01, r^2= 4.2D+00
   Bfn.  Coefficient  Atom+Function         Bfn.  Coefficient  Atom+Function  
  ----- ------------  ---------------      ----- ------------  ---------------
    16      1.382279  2 H  s                 21     -1.376462  3 H  s          
     8      0.594466  1 O  py                 5      0.257510  1 O  py         
     7     -0.234731  1 O  px                69     -0.224170  9 H  s          
    64      0.215190  8 H  s                  9      0.157153  1 O  pz         

 Vector   19  Occ=0.000000D+00  E= 2.497306D-01
              MO Center= -1.8D+00,  3.7D-02, -1.1D+00, r^2= 4.5D+00
   Bfn.  Coefficient  Atom+Function         Bfn.  Coefficient  Atom+Function  
  ----- ------------  ---------------      ----- ------------  ---------------
    64      1.435308  8 H  s                 69     -1.291383  9 H  s          
    55     -0.554937  7 O  px                16     -0.344506  2 H  s          
    57      0.325207  7 O  pz                52     -0.241176  7 O  px         
    45     -0.152716  6 H  s          

 Vector   20  Occ=0.000000D+00  E= 3.243357D-01
              MO Center=  1.3D-01, -1.7D-01,  6.9D-01, r^2= 4.1D+00
   Bfn.  Coefficient  Atom+Function         Bfn.  Coefficient  Atom+Function  
  ----- ------------  ---------------      ----- ------------  ---------------
    40     -1.101016  5 H  s                 27      1.094714  4 O  s          
    45     -0.807021  6 H  s                 64      0.385910  8 H  s          
    32      0.341224  4 O  py                16      0.301746  2 H  s          
    21      0.212939  3 H  s                  7     -0.191169  1 O  px         
    57      0.190697  7 O  pz                69      0.176992  9 H  s          

 Vector   21  Occ=0.000000D+00  E= 4.205468D-01
              MO Center= -2.7D-01, -4.8D-01,  8.4D-01, r^2= 4.0D+00
   Bfn.  Coefficient  Atom+Function         Bfn.  Coefficient  Atom+Function  
  ----- ------------  ---------------      ----- ------------  ---------------
    45      1.959657  6 H  s                 40     -1.673879  5 H  s          
    31      0.676821  4 O  px                32      0.304081  4 O  py         
    69     -0.294333  9 H  s                 28      0.273713  4 O  px         
    55     -0.256362  7 O  px                16      0.202989  2 H  s          
    57     -0.196683  7 O  pz                 7     -0.179603  1 O  px         

 Vector   22  Occ=0.000000D+00  E= 7.520388D-01
              MO Center= -1.5D+00, -3.3D-01, -4.2D-01, r^2= 3.5D+00
   Bfn.  Coefficient  Atom+Function         Bfn.  Coefficient  Atom+Function  
  ----- ------------  ---------------      ----- ------------  ---------------
    63      0.866841  8 H  s                 68     -0.768535  9 H  s          
    64     -0.680187  8 H  s                 45      0.627978  6 H  s          
    69      0.529359  9 H  s                 44     -0.441026  6 H  s          
    55     -0.432938  7 O  px                39      0.330540  5 H  s          
    40     -0.249902  5 H  s                 15      0.244162  2 H  s          

 Vector   23  Occ=0.000000D+00  E= 7.595867D-01
              MO Center=  1.9D+00,  1.3D+00, -1.9D-01, r^2= 2.5D+00
   Bfn.  Coefficient  Atom+Function         Bfn.  Coefficient  Atom+Function  
  ----- ------------  ---------------      ----- ------------  ---------------
    15      0.947711  2 H  s                 20     -0.900944  3 H  s          
    16     -0.752414  2 H  s                 21      0.649682  3 H  s          
     8      0.418216  1 O  py                40      0.342733  5 H  s          
     5      0.241310  1 O  py                63     -0.207606  8 H  s          
    45     -0.162318  6 H  s          

 Vector   24  Occ=0.000000D+00  E= 8.122239D-01
              MO Center= -1.3D-01,  1.3D-01,  6.6D-02, r^2= 6.4D+00
   Bfn.  Coefficient  Atom+Function         Bfn.  Coefficient  Atom+Function  
  ----- ------------  ---------------      ----- ------------  ---------------
    68      0.690045  9 H  s                 39      0.628453  5 H  s          
    40     -0.559499  5 H  s                 44     -0.558775  6 H  s          
    69     -0.546118  9 H  s                 45      0.538502  6 H  s          
    20      0.483585  3 H  s                 15      0.462595  2 H  s          
    16     -0.271856  2 H  s                 21     -0.243905  3 H  s          

 Vector   25  Occ=0.000000D+00  E= 8.248524D-01
              MO Center=  1.3D+00,  7.1D-01,  2.1D-02, r^2= 5.0D+00
   Bfn.  Coefficient  Atom+Function         Bfn.  Coefficient  Atom+Function  
  ----- ------------  ---------------      ----- ------------  ---------------
    40      0.660771  5 H  s                 15      0.628889  2 H  s          
    20      0.626458  3 H  s                 45     -0.603083  6 H  s          
    44      0.567622  6 H  s                 16     -0.539987  2 H  s          
    21     -0.476945  3 H  s                 39     -0.451096  5 H  s          
     4     -0.246198  1 O  px                23      0.239041  3 H  py         


 center of mass
 --------------
 x =  -0.01297753 y =  -0.06455671 z =   0.03317018

 moments of inertia (a.u.)
 ------------------
         265.834823414127        -197.144809447430         -74.320040295044
        -197.144809447430         576.746588745375          49.927646518197
         -74.320040295044          49.927646518197         663.634595246195

  Mulliken analysis of the total density
  --------------------------------------

    Atom       Charge   Shell Charges
 -----------   ------   -------------------------------------------------------
    1 O    8     8.32   2.00  0.83  0.84  2.81  1.82  0.01
    2 H    1     0.81   0.66  0.07  0.08
    3 H    1     0.83   0.68  0.07  0.08
    4 O    8     8.41   2.00  0.83  0.84  2.82  1.90  0.01
    5 H    1     0.84   0.66  0.10  0.09
    6 H    1     0.82   0.65  0.08  0.09
    7 O    8     8.31   2.00  0.83  0.84  2.82  1.81  0.01
    8 H    1     0.82   0.66  0.08  0.08
    9 H    1     0.83   0.68  0.07  0.09

       Multipole analysis of the density wrt the origin
       ------------------------------------------------

     L   x y z        total         open         nuclear
     -   - - -        -----         ----         -------
     0   0 0 0     -0.000000      0.000000     30.000000

     1   1 0 0      0.254638      0.000000      0.000000
     1   0 1 0      1.744613      0.000000      0.000000
     1   0 0 1     -1.003426      0.000000      0.000000

     2   2 0 0     -4.177528      0.000000    281.756912
     2   1 1 0      1.395053      0.000000    110.812058
     2   1 0 1      0.572482      0.000000     42.114562
     2   0 2 0    -14.185909      0.000000     98.629391
     2   0 1 1      1.513225      0.000000    -26.233473
     2   0 0 2    -14.667362      0.000000     50.892897


 Parallel integral file used      46 records with       0 large values

                              NWChem Gradients Module
                              -----------------------



  wavefunction    =   RHF     



                         RHF ENERGY GRADIENTS

    atom               coordinates                        gradient
                 x          y          z           x          y          z
   1 O       3.298373   2.349789  -0.391753   -0.036361  -0.000142   0.005109
   2 H       4.857095   1.391950  -0.743967    0.032353  -0.021606  -0.007851
   3 H       3.836300   4.059659  -0.057498    0.003283   0.019600   0.003651
   4 O       0.430005  -1.793686   1.804970    0.014492  -0.029847   0.010302
   5 H       1.264436  -0.166598   1.592417    0.012601   0.025396  -0.002368
   6 H      -1.277580  -1.482915   1.157387   -0.030845   0.008487  -0.013096
   7 O      -3.816777  -0.995837  -1.187275   -0.003596  -0.024174   0.030071
   8 H      -2.687154  -0.365456  -2.525785    0.024677   0.011966  -0.026831
   9 H      -5.285914   0.081233  -1.230089   -0.016604   0.010320   0.001012

                 ----------------------------------------
                 |  Time  |  1-e(secs)   |  2-e(secs)   |
                 ----------------------------------------
                 |  CPU   |       0.01   |       0.71   |
                 ----------------------------------------
                 |  WALL  |       0.01   |       0.71   |
                 ----------------------------------------

 Task  times  cpu:        1.9s     wall:        2.0s


                                NWChem Input Module
                                -------------------


 Summary of allocated global arrays
-----------------------------------
  No active global arrays



                         GA Statistics for process    0
                         ------------------------------

       create   destroy   get      put      acc     scatter   gather  read&inc
calls:  249      249     8485     3837     3497        0        0      141     
number of processes/call 0.00e+00 0.00e+00 0.00e+00 0.00e+00 0.00e+00
bytes total:             1.41e+07 8.42e+06 2.03e+06 0.00e+00 0.00e+00 1.13e+03
bytes remote:            0.00e+00 0.00e+00 0.00e+00 0.00e+00 0.00e+00 0.00e+00
Max memory consumed for GA by this process: 539136 bytes

MA_summarize_allocated_blocks: starting scan ...
MA_summarize_allocated_blocks: scan completed: 0 heap blocks, 0 stack blocks
MA usage statistics:

	allocation statistics:
					      heap	     stack
					      ----	     -----
	current number of blocks	         0	         0
	maximum number of blocks	        18	        28
	current total bytes		         0	         0
	maximum total bytes		  57703112	  26171432
	maximum total K-bytes		     57704	     26172
	maximum total M-bytes		        58	        27


                                     CITATION
                                     --------
                Please cite the following reference when publishing
                           results obtained with NWChem:

          E. Aprà, E. J. Bylaska, W. A. de Jong, N. Govind, K. Kowalski,
       T. P. Straatsma, M. Valiev, H. J. J. van Dam, Y. Alexeev, J. Anchell,
       V. Anisimov, F. W. Aquino, R. Atta-Fynn, J. Autschbach, N. P. Bauman,
     J. C. Becca, D. E. Bernholdt, K. Bhaskaran-Nair, S. Bogatko, P. Borowski,
        J. Boschen, J. Brabec, A. Bruner, E. Cauët, Y. Chen, G. N. Chuev,
      C. J. Cramer, J. Daily, M. J. O. Deegan, T. H. Dunning Jr., M. Dupuis,
   K. G. Dyall, G. I. Fann, S. A. Fischer, A. Fonari, H. Früchtl, L. Gagliardi,
      J. Garza, N. Gawande, S. Ghosh, K. Glaesemann, A. W. Götz, J. Hammond,
       V. Helms, E. D. Hermes, K. Hirao, S. Hirata, M. Jacquelin, L. Jensen,
   B. G. Johnson, H. Jónsson, R. A. Kendall, M. Klemm, R. Kobayashi, V. Konkov,
      S. Krishnamoorthy, M. Krishnan, Z. Lin, R. D. Lins, R. J. Littlefield,
      A. J. Logsdail, K. Lopata, W. Ma, A. V. Marenich, J. Martin del Campo,
   D. Mejia-Rodriguez, J. E. Moore, J. M. Mullin, T. Nakajima, D. R. Nascimento,
    J. A. Nichols, P. J. Nichols, J. Nieplocha, A. Otero-de-la-Roza, B. Palmer,
    A. Panyala, T. Pirojsirikul, B. Peng, R. Peverati, J. Pittner, L. Pollack,
   R. M. Richard, P. Sadayappan, G. C. Schatz, W. A. Shelton, D. W. Silverstein,
   D. M. A. Smith, T. A. Soares, D. Song, M. Swart, H. L. Taylor, G. S. Thomas,
            V. Tipparaju, D. G. Truhlar, K. Tsemekhman, T. Van Voorhis,
     Á. Vázquez-Mayagoitia, P. Verma, O. Villa, A. Vishnu, K. D. Vogiatzis,
        D. Wang, J. H. Weare, M. J. Williamson, T. L. Windus, K. Woliński,
        A. T. Wong, Q. Wu, C. Yang, Q. Yu, M. Zacharias, Z. Zhang, Y. Zhao,
                                and R. J. Harrison
                        "NWChem: Past, present, and future
                         J. Chem. Phys. 152, 184102 (2020)
                               doi:10.1063/5.0004997

                                      AUTHORS
                                      -------
     E. Apra, E. J. Bylaska, N. Govind, K. Kowalski, M. Valiev, W. A. de Jong,
      T. P. Straatsma, H. J. J. van Dam, D. Wang, T. L. Windus, N. P. Bauman,
       A. Panyala, J. Hammond, J. Autschbach, K. Bhaskaran-Nair, J. Brabec,
    K. Lopata, S. A. Fischer, S. Krishnamoorthy, M. Jacquelin, W. Ma, M. Klemm,
       O. Villa, Y. Chen, V. Anisimov, F. Aquino, S. Hirata, M. T. Hackler,
           Eric Hermes, L. Jensen, J. E. Moore, J. C. Becca, V. Konjkov,
            D. Mejia-Rodriguez, T. Risthaus, M. Malagoli, A. Marenich,
   A. Otero-de-la-Roza, J. Mullin, P. Nichols, R. Peverati, J. Pittner, Y. Zhao,
        P.-D. Fan, A. Fonari, M. J. Williamson, R. J. Harrison, J. R. Rehr,
      M. Dupuis, D. Silverstein, D. M. A. Smith, J. Nieplocha, V. Tipparaju,
      M. Krishnan, B. E. Van Kuiken, A. Vazquez-Mayagoitia, M. Swart, Q. Wu,
   T. Van Voorhis, A. A. Auer, M. Nooijen, L. D. Crosby, E. Brown, G. Cisneros,
     G. I. Fann, H. Fruchtl, J. Garza, K. Hirao, R. A. Kendall, J. A. Nichols,
       K. Tsemekhman, K. Wolinski, J. Anchell, D. E. Bernholdt, P. Borowski,
       T. Clark, D. Clerc, H. Dachsel, M. J. O. Deegan, K. Dyall, D. Elwood,
      E. Glendening, M. Gutowski, A. C. Hess, J. Jaffe, B. G. Johnson, J. Ju,
        R. Kobayashi, R. Kutteh, Z. Lin, R. Littlefield, X. Long, B. Meng,
      T. Nakajima, S. Niu, L. Pollack, M. Rosing, K. Glaesemann, G. Sandrone,
      M. Stave, H. Taylor, G. Thomas, J. H. van Lenthe, A. T. Wong, Z. Zhang.

 Total times  cpu:        1.9s     wall:        2.0s
