 argument  1 = nwchem/input_4_12_at_worker_5.nw



============================== echo of input deck ==============================
echo
memory 1000 mb
geometry noautosym noautoz
O -0.82054445 0.61636011 -1.6312343
H -0.26682713 1.17302621 -1.05309865
H -0.36885969 -0.24447946 -1.58195952
O -0.64071556 -0.48854013 1.6410419
H -0.19915392 0.37247798 1.5285638
H -1.54433112 -0.32408724 1.298356
O 0.57630762 -1.69154092 -0.42866929
H 0.43417462 -2.64420081 -0.48595869
H 0.08911917 -1.3894609 0.38589939
O -2.88801599 -0.0663369 0.05761427
H -2.29024563 0.26724676 -0.65069518
H -3.66545029 0.50362404 0.03495814
end
basis spherical
 * library cc-pvdz
end
task scf gradient
================================================================================


                                         
                                         


             Northwest Computational Chemistry Package (NWChem) 7.0.2
             --------------------------------------------------------


                    Environmental Molecular Sciences Laboratory
                       Pacific Northwest National Laboratory
                                Richland, WA 99352

                              Copyright (c) 1994-2020
                       Pacific Northwest National Laboratory
                            Battelle Memorial Institute

             NWChem is an open-source computational chemistry package
                        distributed under the terms of the
                      Educational Community License (ECL) 2.0
             A copy of the license is included with this distribution
                              in the LICENSE.TXT file

                                  ACKNOWLEDGMENT
                                  --------------

            This software and its documentation were developed at the
            EMSL at Pacific Northwest National Laboratory, a multiprogram
            national laboratory, operated for the U.S. Department of Energy
            by Battelle under Contract Number DE-AC05-76RL01830. Support
            for this work was provided by the Department of Energy Office
            of Biological and Environmental Research, Office of Basic
            Energy Sciences, and the Office of Advanced Scientific Computing.


           Job information
           ---------------

    hostname        = pop-os
    program         = nwchem
    date            = Thu Jul  8 18:20:06 2021

    compiled        = Wed_Jan_06_19:48:08_2021
    source          = /build/nwchem-ksKH2r/nwchem-7.0.2
    nwchem branch   = 7.0.2
    nwchem revision = N/A
    ga revision     = 5.7.1
    use scalapack   = T
    input           = nwchem/input_4_12_at_worker_5.nw
    prefix          = input_4_12_at_worker_5.
    data base       = ./input_4_12_at_worker_5.db
    status          = startup
    nproc           =        1
    time left       =     -1s



           Memory information
           ------------------

    heap     =   32767996 doubles =    250.0 Mbytes
    stack    =   32768001 doubles =    250.0 Mbytes
    global   =   65536000 doubles =    500.0 Mbytes (distinct from heap & stack)
    total    =  131071997 doubles =   1000.0 Mbytes
    verify   = yes
    hardfail = no 


           Directory information
           ---------------------

  0 permanent = .
  0 scratch   = .




                                NWChem Input Module
                                -------------------



 Scaling coordinates for geometry "geometry" by  1.889725989
 (inverse scale =  0.529177249)



                             Geometry "geometry" -> ""
                             -------------------------

 Output coordinates in angstroms (scale by  1.889725989 to convert to a.u.)

  No.       Tag          Charge          X              Y              Z
 ---- ---------------- ---------- -------------- -------------- --------------
    1 O                    8.0000     0.12933858     0.99951801    -1.54588645
    2 H                    1.0000     0.68305590     1.55618411    -0.96775080
    3 H                    1.0000     0.58102334     0.13867844    -1.49661167
    4 O                    8.0000     0.30916747    -0.10538223     1.72638975
    5 H                    1.0000     0.75072911     0.75563588     1.61391165
    6 H                    1.0000    -0.59444809     0.05907066     1.38370385
    7 O                    8.0000     1.52619065    -1.30838302    -0.34332144
    8 H                    1.0000     1.38405765    -2.26104291    -0.40061084
    9 H                    1.0000     1.03900220    -1.00630300     0.47124724
   10 O                    8.0000    -1.93813296     0.31682100     0.14296212
   11 H                    1.0000    -1.34036260     0.65040466    -0.56534733
   12 H                    1.0000    -2.71556726     0.88678194     0.12030599

      Atomic Mass 
      ----------- 

      O                 15.994910
      H                  1.007825


 Effective nuclear repulsion energy (a.u.)     142.4368703818

            Nuclear Dipole moment (a.u.) 
            ----------------------------
        X                 Y               Z
 ---------------- ---------------- ----------------
    -0.0000000000     0.0000000000     0.0000000000


            XYZ format geometry
            -------------------
    12
 geometry
 O                     0.12933858     0.99951801    -1.54588645
 H                     0.68305590     1.55618411    -0.96775080
 H                     0.58102334     0.13867844    -1.49661167
 O                     0.30916747    -0.10538223     1.72638975
 H                     0.75072911     0.75563588     1.61391165
 H                    -0.59444809     0.05907066     1.38370385
 O                     1.52619065    -1.30838302    -0.34332144
 H                     1.38405765    -2.26104291    -0.40061084
 H                     1.03900220    -1.00630300     0.47124724
 O                    -1.93813296     0.31682100     0.14296212
 H                    -1.34036260     0.65040466    -0.56534733
 H                    -2.71556726     0.88678194     0.12030599

 ==============================================================================
                                internuclear distances
 ------------------------------------------------------------------------------
       center one      |      center two      | atomic units |  angstroms
 ------------------------------------------------------------------------------
    2 H                |   1 O                |     1.84258  |     0.97505
    3 H                |   1 O                |     1.83944  |     0.97339
    5 H                |   4 O                |     1.84089  |     0.97416
    6 H                |   4 O                |     1.85251  |     0.98031
    8 H                |   7 O                |     1.82341  |     0.96491
    9 H                |   7 O                |     1.88227  |     0.99606
   11 H                |  10 O                |     1.86146  |     0.98504
   12 H                |  10 O                |     1.82216  |     0.96425
 ------------------------------------------------------------------------------
                         number of included internuclear distances:          8
 ==============================================================================



 ==============================================================================
                                 internuclear angles
 ------------------------------------------------------------------------------
        center 1       |       center 2       |       center 3       |  degrees
 ------------------------------------------------------------------------------
    2 H                |   1 O                |   3 H                |   102.20
    5 H                |   4 O                |   6 H                |   103.25
    8 H                |   7 O                |   9 H                |   106.02
   11 H                |  10 O                |  12 H                |   105.80
 ------------------------------------------------------------------------------
                            number of included internuclear angles:          4
 ==============================================================================





 Summary of "ao basis" -> "" (spherical)
 ------------------------------------------------------------------------------
       Tag                 Description            Shells   Functions and Types
 ---------------- ------------------------------  ------  ---------------------
 *                          cc-pvdz                   on all atoms 


                      Basis "ao basis" -> "ao basis" (spherical)
                      -----
  O (Oxygen)
  ----------
            Exponent  Coefficients 
       -------------- ---------------------------------------------------------
  1 S  1.17200000E+04  0.000710
  1 S  1.75900000E+03  0.005470
  1 S  4.00800000E+02  0.027837
  1 S  1.13700000E+02  0.104800
  1 S  3.70300000E+01  0.283062
  1 S  1.32700000E+01  0.448719
  1 S  5.02500000E+00  0.270952
  1 S  1.01300000E+00  0.015458

  2 S  1.17200000E+04 -0.000160
  2 S  1.75900000E+03 -0.001263
  2 S  4.00800000E+02 -0.006267
  2 S  1.13700000E+02 -0.025716
  2 S  3.70300000E+01 -0.070924
  2 S  1.32700000E+01 -0.165411
  2 S  5.02500000E+00 -0.116955
  2 S  1.01300000E+00  0.557368

  3 S  3.02300000E-01  1.000000

  4 P  1.77000000E+01  0.043018
  4 P  3.85400000E+00  0.228913
  4 P  1.04600000E+00  0.508728

  5 P  2.75300000E-01  1.000000

  6 D  1.18500000E+00  1.000000

  H (Hydrogen)
  ------------
            Exponent  Coefficients 
       -------------- ---------------------------------------------------------
  1 S  1.30100000E+01  0.019685
  1 S  1.96200000E+00  0.137977
  1 S  4.44600000E-01  0.478148

  2 S  1.22000000E-01  1.000000

  3 P  7.27000000E-01  1.000000



 Summary of "ao basis" -> "ao basis" (spherical)
 ------------------------------------------------------------------------------
       Tag                 Description            Shells   Functions and Types
 ---------------- ------------------------------  ------  ---------------------
 O                          cc-pvdz                  6       14   3s2p1d
 H                          cc-pvdz                  3        5   2s1p


                                 NWChem SCF Module
                                 -----------------



  ao basis        = "ao basis"
  functions       =    96
  atoms           =    12
  closed shells   =    20
  open shells     =     0
  charge          =   0.00
  wavefunction    = RHF 
  input vectors   = atomic
  output vectors  = ./input_4_12_at_worker_5.movecs
  use symmetry    = F
  symmetry adapt  = F


 Summary of "ao basis" -> "ao basis" (spherical)
 ------------------------------------------------------------------------------
       Tag                 Description            Shells   Functions and Types
 ---------------- ------------------------------  ------  ---------------------
 O                          cc-pvdz                  6       14   3s2p1d
 H                          cc-pvdz                  3        5   2s1p



 Forming initial guess at       0.1s


      Superposition of Atomic Density Guess
      -------------------------------------

 Sum of atomic energies:        -303.04891642

      Non-variational initial energy
      ------------------------------

 Total energy =    -303.807368
 1-e energy   =    -698.650516
 2-e energy   =     252.406278
 HOMO         =      -0.459307
 LUMO         =       0.043085


 Starting SCF solution at       0.7s



 ----------------------------------------------
         Quadratically convergent ROHF

 Convergence threshold     :          1.000E-04
 Maximum no. of iterations :           30
 Final Fock-matrix accuracy:          1.000E-07
 ----------------------------------------------


 Integral file          = ./input_4_12_at_worker_5.aoints.0
 Record size in doubles =  65536        No. of integs per rec  =  43688
 Max. records in memory =    339        Max. records in file   = 400245
 No. of bits per label  =      8        No. of bits per value  =     64


 #quartets = 5.431D+05 #integrals = 6.691D+06 #direct =  0.0% #cached =100.0%


              iter       energy          gnorm     gmax       time
             ----- ------------------- --------- --------- --------
                 1     -304.0300929668  1.48D+00  2.37D-01      2.3
                 2     -304.1321332633  3.26D-01  5.84D-02      2.5
                 3     -304.1408419035  2.65D-02  4.55D-03      2.8
                 4     -304.1409078162  5.63D-04  7.21D-05      3.2
                 5     -304.1409078440  2.78D-06  5.19D-07      3.7


       Final RHF  results 
       ------------------ 

         Total SCF energy =   -304.140907843987
      One-electron energy =   -703.714390000815
      Two-electron energy =    257.136611775048
 Nuclear repulsion energy =    142.436870381781

        Time for solution =      3.0s


             Final eigenvalues
             -----------------

              1      
    1  -20.5748
    2  -20.5680
    3  -20.5573
    4  -20.5365
    5   -1.3599
    6   -1.3502
    7   -1.3338
    8   -1.3116
    9   -0.7198
   10   -0.7097
   11   -0.7014
   12   -0.6917
   13   -0.6124
   14   -0.5854
   15   -0.5733
   16   -0.5533
   17   -0.5081
   18   -0.4985
   19   -0.4961
   20   -0.4788
   21    0.1474
   22    0.2048
   23    0.2158
   24    0.2470
   25    0.3209
   26    0.3520
   27    0.3858
   28    0.4138
   29    0.7181
   30    0.7299

                       ROHF Final Molecular Orbital Analysis
                       -------------------------------------

 Vector    5  Occ=2.000000D+00  E=-1.359898D+00
              MO Center= -1.1D-01,  5.8D-01, -4.2D-01, r^2= 3.2D+00
   Bfn.  Coefficient  Atom+Function         Bfn.  Coefficient  Atom+Function  
  ----- ------------  ---------------      ----- ------------  ---------------
     2      0.329293   1 O  s                 3      0.290610   1 O  s         
    26      0.210713   4 O  s                74      0.186386  10 O  s         
    27      0.184436   4 O  s                75      0.160419  10 O  s         

 Vector    6  Occ=2.000000D+00  E=-1.350206D+00
              MO Center=  2.7D-01,  3.3D-01,  5.3D-01, r^2= 3.0D+00
   Bfn.  Coefficient  Atom+Function         Bfn.  Coefficient  Atom+Function  
  ----- ------------  ---------------      ----- ------------  ---------------
    26      0.351217   4 O  s                27      0.314642   4 O  s         
     2     -0.263027   1 O  s                 3     -0.236066   1 O  s         

 Vector    7  Occ=2.000000D+00  E=-1.333766D+00
              MO Center= -1.5D+00,  3.8D-01,  3.5D-02, r^2= 2.1D+00
   Bfn.  Coefficient  Atom+Function         Bfn.  Coefficient  Atom+Function  
  ----- ------------  ---------------      ----- ------------  ---------------
    74      0.398465  10 O  s                75      0.359372  10 O  s         
    92      0.171313  12 H  s                87      0.151124  11 H  s         

 Vector    8  Occ=2.000000D+00  E=-1.311580D+00
              MO Center=  1.3D+00, -1.3D+00, -1.3D-01, r^2= 1.2D+00
   Bfn.  Coefficient  Atom+Function         Bfn.  Coefficient  Atom+Function  
  ----- ------------  ---------------      ----- ------------  ---------------
    50      0.423752   7 O  s                51      0.384730   7 O  s         
    63      0.182517   8 H  s                68      0.156225   9 H  s         

 Vector    9  Occ=2.000000D+00  E=-7.198201D-01
              MO Center= -9.7D-01,  3.5D-01,  5.9D-01, r^2= 2.9D+00
   Bfn.  Coefficient  Atom+Function         Bfn.  Coefficient  Atom+Function  
  ----- ------------  ---------------      ----- ------------  ---------------
    76      0.335556  10 O  px               28     -0.278271   4 O  px        
    92     -0.255190  12 H  s                44      0.206043   6 H  s         
    87      0.193188  11 H  s                39     -0.190873   5 H  s         
    79      0.163882  10 O  px        

 Vector   10  Occ=2.000000D+00  E=-7.096665D-01
              MO Center=  3.9D-01,  6.7D-01, -1.2D+00, r^2= 2.0D+00
   Bfn.  Coefficient  Atom+Function         Bfn.  Coefficient  Atom+Function  
  ----- ------------  ---------------      ----- ------------  ---------------
     5      0.431486   1 O  py               20     -0.290170   3 H  s         
    15      0.287815   2 H  s                 8      0.211537   1 O  py        

 Vector   11  Occ=2.000000D+00  E=-7.013991D-01
              MO Center= -7.0D-01,  2.8D-01,  6.6D-01, r^2= 3.1D+00
   Bfn.  Coefficient  Atom+Function         Bfn.  Coefficient  Atom+Function  
  ----- ------------  ---------------      ----- ------------  ---------------
    28      0.308919   4 O  px               76      0.253795  10 O  px        
    87      0.232516  11 H  s                39      0.214145   5 H  s         
    44     -0.212314   6 H  s                78     -0.207905  10 O  pz        
    92     -0.177729  12 H  s                31      0.150449   4 O  px        

 Vector   12  Occ=2.000000D+00  E=-6.917415D-01
              MO Center=  1.2D+00, -1.1D+00, -5.0D-02, r^2= 2.1D+00
   Bfn.  Coefficient  Atom+Function         Bfn.  Coefficient  Atom+Function  
  ----- ------------  ---------------      ----- ------------  ---------------
    53      0.337180   7 O  py               68      0.283355   9 H  s         
    63     -0.278629   8 H  s                54      0.253542   7 O  pz        
    29     -0.159462   4 O  py               56      0.160104   7 O  py        

 Vector   13  Occ=2.000000D+00  E=-6.124373D-01
              MO Center= -8.9D-02,  3.1D-01, -5.2D-02, r^2= 4.1D+00
   Bfn.  Coefficient  Atom+Function         Bfn.  Coefficient  Atom+Function  
  ----- ------------  ---------------      ----- ------------  ---------------
     4      0.292291   1 O  px               29      0.277618   4 O  py        
     3     -0.217288   1 O  s                27     -0.207062   4 O  s         
     7      0.188712   1 O  px               32      0.177476   4 O  py        
    75      0.160244  10 O  s                39      0.153176   5 H  s         
    78      0.151500  10 O  pz        

 Vector   14  Occ=2.000000D+00  E=-5.854334D-01
              MO Center=  1.7D-01,  3.7D-01,  1.2D-02, r^2= 3.9D+00
   Bfn.  Coefficient  Atom+Function         Bfn.  Coefficient  Atom+Function  
  ----- ------------  ---------------      ----- ------------  ---------------
     4      0.308708   1 O  px               29     -0.307722   4 O  py        
     3     -0.215553   1 O  s                27      0.213629   4 O  s         
     6      0.200653   1 O  pz                7      0.201317   1 O  px        
    32     -0.200013   4 O  py               15      0.151893   2 H  s         

 Vector   15  Occ=2.000000D+00  E=-5.732903D-01
              MO Center= -8.0D-01, -2.6D-02,  1.7D-02, r^2= 3.9D+00
   Bfn.  Coefficient  Atom+Function         Bfn.  Coefficient  Atom+Function  
  ----- ------------  ---------------      ----- ------------  ---------------
    77      0.351648  10 O  py               75     -0.259935  10 O  s         
    80      0.241133  10 O  py               78     -0.226990  10 O  pz        
     6      0.170975   1 O  pz               53      0.171489   7 O  py        
    92      0.171118  12 H  s                51      0.163244   7 O  s         
    28     -0.154976   4 O  px               81     -0.151768  10 O  pz        

 Vector   16  Occ=2.000000D+00  E=-5.532971D-01
              MO Center=  7.3D-01, -6.1D-01,  1.1D-01, r^2= 3.7D+00
   Bfn.  Coefficient  Atom+Function         Bfn.  Coefficient  Atom+Function  
  ----- ------------  ---------------      ----- ------------  ---------------
    30      0.272951   4 O  pz               53      0.246185   7 O  py        
    51      0.244610   7 O  s                52      0.239224   7 O  px        
    54     -0.211318   7 O  pz               33      0.209975   4 O  pz        
    77     -0.181801  10 O  py               55      0.175328   7 O  px        
    63     -0.172662   8 H  s                56      0.154789   7 O  py        

 Vector   17  Occ=2.000000D+00  E=-5.081116D-01
              MO Center= -1.1D-01,  8.0D-01, -1.2D+00, r^2= 2.1D+00
   Bfn.  Coefficient  Atom+Function         Bfn.  Coefficient  Atom+Function  
  ----- ------------  ---------------      ----- ------------  ---------------
     6      0.429123   1 O  pz                4     -0.346192   1 O  px        
     9      0.344533   1 O  pz                7     -0.261381   1 O  px        
    78      0.218027  10 O  pz               81      0.156529  10 O  pz        

 Vector   18  Occ=2.000000D+00  E=-4.985288D-01
              MO Center= -1.7D+00,  2.9D-01,  2.1D-01, r^2= 1.4D+00
   Bfn.  Coefficient  Atom+Function         Bfn.  Coefficient  Atom+Function  
  ----- ------------  ---------------      ----- ------------  ---------------
    77      0.376069  10 O  py               78      0.375523  10 O  pz        
    80      0.306822  10 O  py               81      0.293322  10 O  pz        
    76      0.276421  10 O  px               79      0.218524  10 O  px        

 Vector   19  Occ=2.000000D+00  E=-4.960586D-01
              MO Center=  5.3D-01, -2.9D-01,  1.2D+00, r^2= 2.2D+00
   Bfn.  Coefficient  Atom+Function         Bfn.  Coefficient  Atom+Function  
  ----- ------------  ---------------      ----- ------------  ---------------
    30      0.493087   4 O  pz               33      0.395030   4 O  pz        
    54      0.238974   7 O  pz               28     -0.176437   4 O  px        
    29      0.174398   4 O  py               57      0.166876   7 O  pz        

 Vector   20  Occ=2.000000D+00  E=-4.787770D-01
              MO Center=  1.4D+00, -1.2D+00, -3.6D-01, r^2= 1.1D+00
   Bfn.  Coefficient  Atom+Function         Bfn.  Coefficient  Atom+Function  
  ----- ------------  ---------------      ----- ------------  ---------------
    52      0.509463   7 O  px               55      0.411109   7 O  px        
    54      0.321806   7 O  pz               57      0.250568   7 O  pz        

 Vector   21  Occ=0.000000D+00  E= 1.473598D-01
              MO Center=  3.8D-01,  9.5D-01,  2.2D-01, r^2= 5.5D+00
   Bfn.  Coefficient  Atom+Function         Bfn.  Coefficient  Atom+Function  
  ----- ------------  ---------------      ----- ------------  ---------------
    16      0.750843   2 H  s                40      0.741720   5 H  s         
     3     -0.509428   1 O  s                27     -0.471978   4 O  s         
    93      0.426434  12 H  s                64      0.342475   8 H  s         
    75     -0.318733  10 O  s                51     -0.243981   7 O  s         
    32     -0.232403   4 O  py                9     -0.176604   1 O  pz        

 Vector   22  Occ=0.000000D+00  E= 2.048029D-01
              MO Center= -2.3D+00,  9.8D-01,  1.9D-01, r^2= 4.7D+00
   Bfn.  Coefficient  Atom+Function         Bfn.  Coefficient  Atom+Function  
  ----- ------------  ---------------      ----- ------------  ---------------
    93      1.302530  12 H  s                75     -0.804720  10 O  s         
    40     -0.427717   5 H  s                16     -0.368334   2 H  s         
    79      0.312405  10 O  px               80     -0.238955  10 O  py        
    45      0.201936   6 H  s                64     -0.197659   8 H  s         

 Vector   23  Occ=0.000000D+00  E= 2.158000D-01
              MO Center=  1.2D+00, -1.9D+00, -4.0D-01, r^2= 4.5D+00
   Bfn.  Coefficient  Atom+Function         Bfn.  Coefficient  Atom+Function  
  ----- ------------  ---------------      ----- ------------  ---------------
    64      1.289756   8 H  s                51     -0.793436   7 O  s         
    16     -0.453699   2 H  s                56      0.374419   7 O  py        
    40     -0.359334   5 H  s                21      0.354914   3 H  s         
     8      0.191702   1 O  py               53      0.182330   7 O  py        
    45      0.166618   6 H  s         

 Vector   24  Occ=0.000000D+00  E= 2.469862D-01
              MO Center=  7.2D-01,  1.1D+00,  3.1D-01, r^2= 5.1D+00
   Bfn.  Coefficient  Atom+Function         Bfn.  Coefficient  Atom+Function  
  ----- ------------  ---------------      ----- ------------  ---------------
    40     -1.047556   5 H  s                16      0.965081   2 H  s         
     3     -0.766642   1 O  s                27      0.737119   4 O  s         
    32      0.299147   4 O  py               21      0.294445   3 H  s         
     7     -0.213356   1 O  px               45     -0.201140   6 H  s         
     9     -0.174511   1 O  pz        

 Vector   25  Occ=0.000000D+00  E= 3.208608D-01
              MO Center=  3.0D-01, -1.6D-01, -1.0D+00, r^2= 5.5D+00
   Bfn.  Coefficient  Atom+Function         Bfn.  Coefficient  Atom+Function  
  ----- ------------  ---------------      ----- ------------  ---------------
    21      1.438747   3 H  s                16     -0.931695   2 H  s         
    64     -0.684274   8 H  s                 8      0.527741   1 O  py        
    88      0.514231  11 H  s                93     -0.503265  12 H  s         
     3     -0.407558   1 O  s                56     -0.369514   7 O  py        
    45      0.340972   6 H  s                27     -0.272537   4 O  s         

 Vector   26  Occ=0.000000D+00  E= 3.520157D-01
              MO Center= -4.2D-01,  1.3D-01,  8.4D-01, r^2= 5.4D+00
   Bfn.  Coefficient  Atom+Function         Bfn.  Coefficient  Atom+Function  
  ----- ------------  ---------------      ----- ------------  ---------------
    45      1.637985   6 H  s                40     -1.023282   5 H  s         
    21     -0.847041   3 H  s                93     -0.567056  12 H  s         
    31      0.501016   4 O  px               16      0.493025   2 H  s         
    27     -0.444898   4 O  s                69      0.436789   9 H  s         
    79     -0.364754  10 O  px               88      0.306060  11 H  s         

 Vector   27  Occ=0.000000D+00  E= 3.857796D-01
              MO Center= -9.0D-01,  4.7D-01, -5.8D-01, r^2= 4.9D+00
   Bfn.  Coefficient  Atom+Function         Bfn.  Coefficient  Atom+Function  
  ----- ------------  ---------------      ----- ------------  ---------------
    88      2.033462  11 H  s                69     -0.713967   9 H  s         
    93     -0.715965  12 H  s                21     -0.565596   3 H  s         
    75     -0.557374  10 O  s                45     -0.549154   6 H  s         
    81      0.442070  10 O  pz               79     -0.438489  10 O  px        
    64      0.428053   8 H  s                 7      0.368519   1 O  px        

 Vector   28  Occ=0.000000D+00  E= 4.138147D-01
              MO Center=  5.8D-01, -7.4D-01,  6.6D-01, r^2= 4.7D+00
   Bfn.  Coefficient  Atom+Function         Bfn.  Coefficient  Atom+Function  
  ----- ------------  ---------------      ----- ------------  ---------------
    69      2.139673   9 H  s                45     -1.154420   6 H  s         
    64     -0.717767   8 H  s                21     -0.650307   3 H  s         
    51     -0.628078   7 O  s                88      0.604468  11 H  s         
    57     -0.492792   7 O  pz               31     -0.405026   4 O  px        
    56     -0.290863   7 O  py               32      0.247500   4 O  py        

 Vector   29  Occ=0.000000D+00  E= 7.181430D-01
              MO Center= -2.9D-01,  8.3D-03,  9.2D-01, r^2= 3.7D+00
   Bfn.  Coefficient  Atom+Function         Bfn.  Coefficient  Atom+Function  
  ----- ------------  ---------------      ----- ------------  ---------------
    45      0.908610   6 H  s                44     -0.799329   6 H  s         
    39      0.568731   5 H  s                88     -0.571375  11 H  s         
    87      0.527515  11 H  s                69     -0.424032   9 H  s         
    40     -0.416786   5 H  s                68      0.390403   9 H  s         
    92     -0.391974  12 H  s                79     -0.334568  10 O  px        

 Vector   30  Occ=0.000000D+00  E= 7.299362D-01
              MO Center=  2.9D-01,  6.2D-01, -1.1D+00, r^2= 3.3D+00
   Bfn.  Coefficient  Atom+Function         Bfn.  Coefficient  Atom+Function  
  ----- ------------  ---------------      ----- ------------  ---------------
    15      0.883344   2 H  s                20     -0.771226   3 H  s         
    21      0.733701   3 H  s                16     -0.676410   2 H  s         
    63     -0.333369   8 H  s                 8     -0.325424   1 O  py        
    92      0.318902  12 H  s                69     -0.304867   9 H  s         
    68      0.294183   9 H  s                56     -0.273573   7 O  py        


 center of mass
 --------------
 x =   0.00552714 y =  -0.02027156 z =  -0.00413146

 moments of inertia (a.u.)
 ------------------
         543.344545752060         164.398682200817          29.477586485570
         164.398682200817         748.910266283135          71.279697075122
          29.477586485570          71.279697075122         602.427019508026

  Mulliken analysis of the total density
  --------------------------------------

    Atom       Charge   Shell Charges
 -----------   ------   -------------------------------------------------------
    1 O    8     8.34   2.00  0.83  0.84  2.82  1.83  0.01
    2 H    1     0.83   0.67  0.08  0.08
    3 H    1     0.80   0.64  0.08  0.09
    4 O    8     8.35   2.00  0.83  0.84  2.83  1.84  0.01
    5 H    1     0.84   0.68  0.08  0.08
    6 H    1     0.79   0.62  0.08  0.09
    7 O    8     8.40   2.00  0.82  0.85  2.83  1.89  0.01
    8 H    1     0.84   0.68  0.07  0.08
    9 H    1     0.79   0.61  0.09  0.09
   10 O    8     8.38   2.00  0.82  0.84  2.83  1.86  0.01
   11 H    1     0.80   0.62  0.09  0.09
   12 H    1     0.83   0.68  0.07  0.08

       Multipole analysis of the density wrt the origin
       ------------------------------------------------

     L   x y z        total         open         nuclear
     -   - - -        -----         ----         -------
     0   0 0 0     -0.000000      0.000000     40.000000

     1   1 0 0     -0.275333      0.000000     -0.000000
     1   0 1 0      0.725758      0.000000      0.000000
     1   0 0 1      0.132130      0.000000      0.000000

     2   2 0 0    -18.255976      0.000000    226.657512
     2   1 1 0     -0.818909      0.000000    -92.464356
     2   1 0 1      0.257862      0.000000    -16.117343
     2   0 2 0    -13.500262      0.000000    117.591047
     2   0 1 1      2.894296      0.000000    -36.076254
     2   0 0 2    -23.615012      0.000000    187.410682


 Parallel integral file used     154 records with       0 large values

                              NWChem Gradients Module
                              -----------------------



  wavefunction    =   RHF     



                         RHF ENERGY GRADIENTS

    atom               coordinates                        gradient
                 x          y          z           x          y          z
   1 O       0.244414   1.888815  -2.921302   -0.027445  -0.000399  -0.019271
   2 H       1.290788   2.940762  -1.828784    0.015263   0.014737   0.020284
   3 H       1.097975   0.262064  -2.828186    0.006811  -0.013534   0.000588
   4 O       0.584242  -0.199144   3.262404    0.010296  -0.034153   0.008241
   5 H       1.418672   1.427945   3.049851    0.012034   0.025076  -0.007163
   6 H      -1.123344   0.111627   2.614821   -0.017900   0.005810  -0.008765
   7 O       2.884082  -2.472485  -0.648783    0.019615   0.007805  -0.018542
   8 H       2.615490  -4.272752  -0.757045   -0.002269  -0.020826  -0.002172
   9 H       1.963429  -1.901637   0.890528   -0.020213   0.015236   0.027221
  10 O      -3.662540   0.598705   0.270159    0.001278  -0.022340   0.016883
  11 H      -2.532918   1.229087  -1.068352    0.018689   0.010482  -0.016816
  12 H      -5.131678   1.675775   0.227345   -0.016157   0.012105  -0.000490

                 ----------------------------------------
                 |  Time  |  1-e(secs)   |  2-e(secs)   |
                 ----------------------------------------
                 |  CPU   |       0.02   |       1.92   |
                 ----------------------------------------
                 |  WALL  |       0.02   |       1.92   |
                 ----------------------------------------

 Task  times  cpu:        5.7s     wall:        5.8s


                                NWChem Input Module
                                -------------------


 Summary of allocated global arrays
-----------------------------------
  No active global arrays



                         GA Statistics for process    0
                         ------------------------------

       create   destroy   get      put      acc     scatter   gather  read&inc
calls:  268      268     1.11e+04 5685     4684        0        0      167     
number of processes/call 0.00e+00 0.00e+00 0.00e+00 0.00e+00 0.00e+00
bytes total:             2.58e+07 1.54e+07 3.80e+06 0.00e+00 0.00e+00 1.34e+03
bytes remote:            0.00e+00 0.00e+00 0.00e+00 0.00e+00 0.00e+00 0.00e+00
Max memory consumed for GA by this process: 958464 bytes

MA_summarize_allocated_blocks: starting scan ...
MA_summarize_allocated_blocks: scan completed: 0 heap blocks, 0 stack blocks
MA usage statistics:

	allocation statistics:
					      heap	     stack
					      ----	     -----
	current number of blocks	         0	         0
	maximum number of blocks	        18	        28
	current total bytes		         0	         0
	maximum total bytes		 177770848	  26178728
	maximum total K-bytes		    177771	     26179
	maximum total M-bytes		       178	        27


                                     CITATION
                                     --------
                Please cite the following reference when publishing
                           results obtained with NWChem:

          E. Aprà, E. J. Bylaska, W. A. de Jong, N. Govind, K. Kowalski,
       T. P. Straatsma, M. Valiev, H. J. J. van Dam, Y. Alexeev, J. Anchell,
       V. Anisimov, F. W. Aquino, R. Atta-Fynn, J. Autschbach, N. P. Bauman,
     J. C. Becca, D. E. Bernholdt, K. Bhaskaran-Nair, S. Bogatko, P. Borowski,
        J. Boschen, J. Brabec, A. Bruner, E. Cauët, Y. Chen, G. N. Chuev,
      C. J. Cramer, J. Daily, M. J. O. Deegan, T. H. Dunning Jr., M. Dupuis,
   K. G. Dyall, G. I. Fann, S. A. Fischer, A. Fonari, H. Früchtl, L. Gagliardi,
      J. Garza, N. Gawande, S. Ghosh, K. Glaesemann, A. W. Götz, J. Hammond,
       V. Helms, E. D. Hermes, K. Hirao, S. Hirata, M. Jacquelin, L. Jensen,
   B. G. Johnson, H. Jónsson, R. A. Kendall, M. Klemm, R. Kobayashi, V. Konkov,
      S. Krishnamoorthy, M. Krishnan, Z. Lin, R. D. Lins, R. J. Littlefield,
      A. J. Logsdail, K. Lopata, W. Ma, A. V. Marenich, J. Martin del Campo,
   D. Mejia-Rodriguez, J. E. Moore, J. M. Mullin, T. Nakajima, D. R. Nascimento,
    J. A. Nichols, P. J. Nichols, J. Nieplocha, A. Otero-de-la-Roza, B. Palmer,
    A. Panyala, T. Pirojsirikul, B. Peng, R. Peverati, J. Pittner, L. Pollack,
   R. M. Richard, P. Sadayappan, G. C. Schatz, W. A. Shelton, D. W. Silverstein,
   D. M. A. Smith, T. A. Soares, D. Song, M. Swart, H. L. Taylor, G. S. Thomas,
            V. Tipparaju, D. G. Truhlar, K. Tsemekhman, T. Van Voorhis,
     Á. Vázquez-Mayagoitia, P. Verma, O. Villa, A. Vishnu, K. D. Vogiatzis,
        D. Wang, J. H. Weare, M. J. Williamson, T. L. Windus, K. Woliński,
        A. T. Wong, Q. Wu, C. Yang, Q. Yu, M. Zacharias, Z. Zhang, Y. Zhao,
                                and R. J. Harrison
                        "NWChem: Past, present, and future
                         J. Chem. Phys. 152, 184102 (2020)
                               doi:10.1063/5.0004997

                                      AUTHORS
                                      -------
     E. Apra, E. J. Bylaska, N. Govind, K. Kowalski, M. Valiev, W. A. de Jong,
      T. P. Straatsma, H. J. J. van Dam, D. Wang, T. L. Windus, N. P. Bauman,
       A. Panyala, J. Hammond, J. Autschbach, K. Bhaskaran-Nair, J. Brabec,
    K. Lopata, S. A. Fischer, S. Krishnamoorthy, M. Jacquelin, W. Ma, M. Klemm,
       O. Villa, Y. Chen, V. Anisimov, F. Aquino, S. Hirata, M. T. Hackler,
           Eric Hermes, L. Jensen, J. E. Moore, J. C. Becca, V. Konjkov,
            D. Mejia-Rodriguez, T. Risthaus, M. Malagoli, A. Marenich,
   A. Otero-de-la-Roza, J. Mullin, P. Nichols, R. Peverati, J. Pittner, Y. Zhao,
        P.-D. Fan, A. Fonari, M. J. Williamson, R. J. Harrison, J. R. Rehr,
      M. Dupuis, D. Silverstein, D. M. A. Smith, J. Nieplocha, V. Tipparaju,
      M. Krishnan, B. E. Van Kuiken, A. Vazquez-Mayagoitia, M. Swart, Q. Wu,
   T. Van Voorhis, A. A. Auer, M. Nooijen, L. D. Crosby, E. Brown, G. Cisneros,
     G. I. Fann, H. Fruchtl, J. Garza, K. Hirao, R. A. Kendall, J. A. Nichols,
       K. Tsemekhman, K. Wolinski, J. Anchell, D. E. Bernholdt, P. Borowski,
       T. Clark, D. Clerc, H. Dachsel, M. J. O. Deegan, K. Dyall, D. Elwood,
      E. Glendening, M. Gutowski, A. C. Hess, J. Jaffe, B. G. Johnson, J. Ju,
        R. Kobayashi, R. Kutteh, Z. Lin, R. Littlefield, X. Long, B. Meng,
      T. Nakajima, S. Niu, L. Pollack, M. Rosing, K. Glaesemann, G. Sandrone,
      M. Stave, H. Taylor, G. Thomas, J. H. van Lenthe, A. T. Wong, Z. Zhang.

 Total times  cpu:        5.7s     wall:        5.8s
