 argument  1 = nwchem/input_2_14_at_worker_2.nw



============================== echo of input deck ==============================
echo
memory 1000 mb
geometry noautosym noautoz
O 0.57630762 -1.69154092 -0.42866929
H 0.43417462 -2.64420081 -0.48595869
H 0.08911917 -1.3894609 0.38589939
O -2.88801599 -0.0663369 0.05761427
H -2.29024563 0.26724676 -0.65069518
H -3.66545029 0.50362404 0.03495814
end
basis spherical
 * library cc-pvdz
end
task scf gradient
================================================================================


                                         
                                         


             Northwest Computational Chemistry Package (NWChem) 7.0.2
             --------------------------------------------------------


                    Environmental Molecular Sciences Laboratory
                       Pacific Northwest National Laboratory
                                Richland, WA 99352

                              Copyright (c) 1994-2020
                       Pacific Northwest National Laboratory
                            Battelle Memorial Institute

             NWChem is an open-source computational chemistry package
                        distributed under the terms of the
                      Educational Community License (ECL) 2.0
             A copy of the license is included with this distribution
                              in the LICENSE.TXT file

                                  ACKNOWLEDGMENT
                                  --------------

            This software and its documentation were developed at the
            EMSL at Pacific Northwest National Laboratory, a multiprogram
            national laboratory, operated for the U.S. Department of Energy
            by Battelle under Contract Number DE-AC05-76RL01830. Support
            for this work was provided by the Department of Energy Office
            of Biological and Environmental Research, Office of Basic
            Energy Sciences, and the Office of Advanced Scientific Computing.


           Job information
           ---------------

    hostname        = pop-os
    program         = nwchem
    date            = Thu Jul  8 18:19:42 2021

    compiled        = Wed_Jan_06_19:48:08_2021
    source          = /build/nwchem-ksKH2r/nwchem-7.0.2
    nwchem branch   = 7.0.2
    nwchem revision = N/A
    ga revision     = 5.7.1
    use scalapack   = T
    input           = nwchem/input_2_14_at_worker_2.nw
    prefix          = input_2_14_at_worker_2.
    data base       = ./input_2_14_at_worker_2.db
    status          = startup
    nproc           =        1
    time left       =     -1s



           Memory information
           ------------------

    heap     =   32767998 doubles =    250.0 Mbytes
    stack    =   32767995 doubles =    250.0 Mbytes
    global   =   65536000 doubles =    500.0 Mbytes (distinct from heap & stack)
    total    =  131071993 doubles =   1000.0 Mbytes
    verify   = yes
    hardfail = no 


           Directory information
           ---------------------

  0 permanent = .
  0 scratch   = .




                                NWChem Input Module
                                -------------------



 Scaling coordinates for geometry "geometry" by  1.889725989
 (inverse scale =  0.529177249)



                             Geometry "geometry" -> ""
                             -------------------------

 Output coordinates in angstroms (scale by  1.889725989 to convert to a.u.)

  No.       Tag          Charge          X              Y              Z
 ---- ---------------- ---------- -------------- -------------- --------------
    1 O                    8.0000     1.77261107    -0.82525025    -0.24445747
    2 H                    1.0000     1.63047807    -1.77791014    -0.30174687
    3 H                    1.0000     1.28542262    -0.52317023     0.57011122
    4 O                    8.0000    -1.69171254     0.79995377     0.24182610
    5 H                    1.0000    -1.09394218     1.13353743    -0.46648336
    6 H                    1.0000    -2.46914684     1.36991471     0.21916997

      Atomic Mass 
      ----------- 

      O                 15.994910
      H                  1.007825


 Effective nuclear repulsion energy (a.u.)      31.7059068700

            Nuclear Dipole moment (a.u.) 
            ----------------------------
        X                 Y               Z
 ---------------- ---------------- ----------------
     0.0000000000    -0.0000000000     0.0000000000


            XYZ format geometry
            -------------------
     6
 geometry
 O                     1.77261107    -0.82525025    -0.24445747
 H                     1.63047807    -1.77791014    -0.30174687
 H                     1.28542262    -0.52317023     0.57011122
 O                    -1.69171254     0.79995377     0.24182610
 H                    -1.09394218     1.13353743    -0.46648336
 H                    -2.46914684     1.36991471     0.21916997

 ==============================================================================
                                internuclear distances
 ------------------------------------------------------------------------------
       center one      |      center two      | atomic units |  angstroms
 ------------------------------------------------------------------------------
    2 H                |   1 O                |     1.82341  |     0.96491
    3 H                |   1 O                |     1.88227  |     0.99606
    5 H                |   4 O                |     1.86146  |     0.98504
    6 H                |   4 O                |     1.82216  |     0.96425
 ------------------------------------------------------------------------------
                         number of included internuclear distances:          4
 ==============================================================================



 ==============================================================================
                                 internuclear angles
 ------------------------------------------------------------------------------
        center 1       |       center 2       |       center 3       |  degrees
 ------------------------------------------------------------------------------
    2 H                |   1 O                |   3 H                |   106.02
    5 H                |   4 O                |   6 H                |   105.80
 ------------------------------------------------------------------------------
                            number of included internuclear angles:          2
 ==============================================================================





 Summary of "ao basis" -> "" (spherical)
 ------------------------------------------------------------------------------
       Tag                 Description            Shells   Functions and Types
 ---------------- ------------------------------  ------  ---------------------
 *                          cc-pvdz                   on all atoms 


                      Basis "ao basis" -> "ao basis" (spherical)
                      -----
  O (Oxygen)
  ----------
            Exponent  Coefficients 
       -------------- ---------------------------------------------------------
  1 S  1.17200000E+04  0.000710
  1 S  1.75900000E+03  0.005470
  1 S  4.00800000E+02  0.027837
  1 S  1.13700000E+02  0.104800
  1 S  3.70300000E+01  0.283062
  1 S  1.32700000E+01  0.448719
  1 S  5.02500000E+00  0.270952
  1 S  1.01300000E+00  0.015458

  2 S  1.17200000E+04 -0.000160
  2 S  1.75900000E+03 -0.001263
  2 S  4.00800000E+02 -0.006267
  2 S  1.13700000E+02 -0.025716
  2 S  3.70300000E+01 -0.070924
  2 S  1.32700000E+01 -0.165411
  2 S  5.02500000E+00 -0.116955
  2 S  1.01300000E+00  0.557368

  3 S  3.02300000E-01  1.000000

  4 P  1.77000000E+01  0.043018
  4 P  3.85400000E+00  0.228913
  4 P  1.04600000E+00  0.508728

  5 P  2.75300000E-01  1.000000

  6 D  1.18500000E+00  1.000000

  H (Hydrogen)
  ------------
            Exponent  Coefficients 
       -------------- ---------------------------------------------------------
  1 S  1.30100000E+01  0.019685
  1 S  1.96200000E+00  0.137977
  1 S  4.44600000E-01  0.478148

  2 S  1.22000000E-01  1.000000

  3 P  7.27000000E-01  1.000000



 Summary of "ao basis" -> "ao basis" (spherical)
 ------------------------------------------------------------------------------
       Tag                 Description            Shells   Functions and Types
 ---------------- ------------------------------  ------  ---------------------
 O                          cc-pvdz                  6       14   3s2p1d
 H                          cc-pvdz                  3        5   2s1p


                                 NWChem SCF Module
                                 -----------------



  ao basis        = "ao basis"
  functions       =    48
  atoms           =     6
  closed shells   =    10
  open shells     =     0
  charge          =   0.00
  wavefunction    = RHF 
  input vectors   = atomic
  output vectors  = ./input_2_14_at_worker_2.movecs
  use symmetry    = F
  symmetry adapt  = F


 Summary of "ao basis" -> "ao basis" (spherical)
 ------------------------------------------------------------------------------
       Tag                 Description            Shells   Functions and Types
 ---------------- ------------------------------  ------  ---------------------
 O                          cc-pvdz                  6       14   3s2p1d
 H                          cc-pvdz                  3        5   2s1p



 Forming initial guess at       0.0s


      Superposition of Atomic Density Guess
      -------------------------------------

 Sum of atomic energies:        -151.52445821

      Non-variational initial energy
      ------------------------------

 Total energy =    -151.771259
 1-e energy   =    -270.327816
 2-e energy   =      86.850650
 HOMO         =      -0.462450
 LUMO         =       0.064585


 Starting SCF solution at       0.1s



 ----------------------------------------------
         Quadratically convergent ROHF

 Convergence threshold     :          1.000E-04
 Maximum no. of iterations :           30
 Final Fock-matrix accuracy:          1.000E-07
 ----------------------------------------------


 Integral file          = ./input_2_14_at_worker_2.aoints.0
 Record size in doubles =  65536        No. of integs per rec  =  43688
 Max. records in memory =     23        Max. records in file   = 400300
 No. of bits per label  =      8        No. of bits per value  =     64


 #quartets = 3.216D+04 #integrals = 4.030D+05 #direct =  0.0% #cached =100.0%


              iter       energy          gnorm     gmax       time
             ----- ------------------- --------- --------- --------
                 1     -151.9839913354  1.16D+00  3.27D-01      0.2
                 2     -152.0476874899  2.46D-01  6.67D-02      0.2
                 3     -152.0523003255  2.14D-02  6.24D-03      0.3
                 4     -152.0523358922  3.43D-04  7.00D-05      0.3
                 5     -152.0523359003  5.01D-06  1.43D-06      0.3


       Final RHF  results 
       ------------------ 

         Total SCF energy =   -152.052335900328
      One-electron energy =   -273.043142995483
      Two-electron energy =     89.284900225138
 Nuclear repulsion energy =     31.705906870017

        Time for solution =      0.2s


             Final eigenvalues
             -----------------

              1      
    1  -20.5557
    2  -20.5492
    3   -1.3301
    4   -1.3198
    5   -0.6956
    6   -0.6850
    7   -0.5647
    8   -0.5552
    9   -0.4947
   10   -0.4866
   11    0.1658
   12    0.2045
   13    0.2554
   14    0.2728
   15    0.7585
   16    0.8070
   17    0.8323
   18    0.8465
   19    1.1614
   20    1.1685

                       ROHF Final Molecular Orbital Analysis
                       -------------------------------------

 Vector    2  Occ=2.000000D+00  E=-2.054917D+01
              MO Center=  1.8D+00, -8.3D-01, -2.4D-01, r^2= 1.5D-02
   Bfn.  Coefficient  Atom+Function         Bfn.  Coefficient  Atom+Function  
  ----- ------------  ---------------      ----- ------------  ---------------
     1      1.000860  1 O  s          

 Vector    3  Occ=2.000000D+00  E=-1.330115D+00
              MO Center= -1.7D+00,  9.3D-01,  1.4D-01, r^2= 5.2D-01
   Bfn.  Coefficient  Atom+Function         Bfn.  Coefficient  Atom+Function  
  ----- ------------  ---------------      ----- ------------  ---------------
    26      0.444708  4 O  s                 27      0.389388  4 O  s          
    44      0.191191  6 H  s                 39      0.179630  5 H  s          

 Vector    4  Occ=2.000000D+00  E=-1.319777D+00
              MO Center=  1.7D+00, -9.2D-01, -1.5D-01, r^2= 5.2D-01
   Bfn.  Coefficient  Atom+Function         Bfn.  Coefficient  Atom+Function  
  ----- ------------  ---------------      ----- ------------  ---------------
     2      0.445301  1 O  s                  3      0.393509  1 O  s          
    15      0.191426  2 H  s                 20      0.174636  3 H  s          

 Vector    5  Occ=2.000000D+00  E=-6.955800D-01
              MO Center= -1.6D+00,  9.2D-01,  9.6D-02, r^2= 1.2D+00
   Bfn.  Coefficient  Atom+Function         Bfn.  Coefficient  Atom+Function  
  ----- ------------  ---------------      ----- ------------  ---------------
    28      0.427899  4 O  px                44     -0.325020  6 H  s          
    39      0.313560  5 H  s                 30     -0.201727  4 O  pz         
    31      0.199057  4 O  px         

 Vector    6  Occ=2.000000D+00  E=-6.850353D-01
              MO Center=  1.6D+00, -8.9D-01, -9.2D-02, r^2= 1.2D+00
   Bfn.  Coefficient  Atom+Function         Bfn.  Coefficient  Atom+Function  
  ----- ------------  ---------------      ----- ------------  ---------------
     5      0.397433  1 O  py                15     -0.326188  2 H  s          
    20      0.310480  3 H  s                  6      0.253055  1 O  pz         
     8      0.186208  1 O  py         

 Vector    7  Occ=2.000000D+00  E=-5.646739D-01
              MO Center= -1.6D+00,  7.5D-01,  2.6D-01, r^2= 8.4D-01
   Bfn.  Coefficient  Atom+Function         Bfn.  Coefficient  Atom+Function  
  ----- ------------  ---------------      ----- ------------  ---------------
    29      0.415562  4 O  py                27     -0.337620  4 O  s          
    30     -0.338958  4 O  pz                32      0.283025  4 O  py         
    33     -0.230219  4 O  pz                39      0.208615  5 H  s          
    44      0.196750  6 H  s          

 Vector    8  Occ=2.000000D+00  E=-5.552260D-01
              MO Center=  1.8D+00, -7.8D-01, -2.6D-01, r^2= 8.4D-01
   Bfn.  Coefficient  Atom+Function         Bfn.  Coefficient  Atom+Function  
  ----- ------------  ---------------      ----- ------------  ---------------
     6     -0.350725  1 O  pz                 3      0.331706  1 O  s          
     5      0.298048  1 O  py                 4      0.288329  1 O  px         
     9     -0.240389  1 O  pz                20     -0.211155  3 H  s          
     8      0.204098  1 O  py                 7      0.196617  1 O  px         
    15     -0.194063  2 H  s          

 Vector    9  Occ=2.000000D+00  E=-4.947023D-01
              MO Center= -1.7D+00,  8.2D-01,  2.3D-01, r^2= 6.0D-01
   Bfn.  Coefficient  Atom+Function         Bfn.  Coefficient  Atom+Function  
  ----- ------------  ---------------      ----- ------------  ---------------
    30      0.413749  4 O  pz                29      0.390944  4 O  py         
    33      0.325422  4 O  pz                32      0.307697  4 O  py         
    28      0.273008  4 O  px                31      0.215671  4 O  px         

 Vector   10  Occ=2.000000D+00  E=-4.866463D-01
              MO Center=  1.8D+00, -8.4D-01, -2.3D-01, r^2= 6.1D-01
   Bfn.  Coefficient  Atom+Function         Bfn.  Coefficient  Atom+Function  
  ----- ------------  ---------------      ----- ------------  ---------------
     4      0.519387  1 O  px                 7      0.409710  1 O  px         
     6      0.344723  1 O  pz                 9      0.270741  1 O  pz         

 Vector   11  Occ=0.000000D+00  E= 1.658430D-01
              MO Center= -3.9D-01,  3.6D-01, -8.0D-03, r^2= 6.1D+00
   Bfn.  Coefficient  Atom+Function         Bfn.  Coefficient  Atom+Function  
  ----- ------------  ---------------      ----- ------------  ---------------
    27      0.734833  4 O  s                 40     -0.669500  5 H  s          
     3      0.594882  1 O  s                 21     -0.593233  3 H  s          
    45     -0.526916  6 H  s                 16     -0.396666  2 H  s          
    32      0.190410  4 O  py                33     -0.167095  4 O  pz         
     9      0.157788  1 O  pz         

 Vector   12  Occ=0.000000D+00  E= 2.044560D-01
              MO Center= -1.9D-01, -2.9D-01,  5.2D-03, r^2= 9.0D+00
   Bfn.  Coefficient  Atom+Function         Bfn.  Coefficient  Atom+Function  
  ----- ------------  ---------------      ----- ------------  ---------------
    16      0.857865  2 H  s                 45     -0.825214  6 H  s          
     3     -0.734128  1 O  s                 27      0.616408  4 O  s          
    21      0.366631  3 H  s                  8      0.233552  1 O  py         
    40     -0.224453  5 H  s                 32      0.181284  4 O  py         

 Vector   13  Occ=0.000000D+00  E= 2.553794D-01
              MO Center= -7.0D-01,  3.1D-01, -1.2D-01, r^2= 8.2D+00
   Bfn.  Coefficient  Atom+Function         Bfn.  Coefficient  Atom+Function  
  ----- ------------  ---------------      ----- ------------  ---------------
    45      1.168197  6 H  s                 40     -1.043115  5 H  s          
    16      0.917678  2 H  s                 21     -0.600897  3 H  s          
    31      0.468663  4 O  px                 8      0.326080  1 O  py         
    28      0.215542  4 O  px                33     -0.216151  4 O  pz         
     3     -0.194024  1 O  s                  5      0.162160  1 O  py         

 Vector   14  Occ=0.000000D+00  E= 2.728367D-01
              MO Center=  4.2D-01, -1.3D-01,  1.3D-01, r^2= 6.1D+00
   Bfn.  Coefficient  Atom+Function         Bfn.  Coefficient  Atom+Function  
  ----- ------------  ---------------      ----- ------------  ---------------
    21      1.314899  3 H  s                 40     -1.028447  5 H  s          
    16     -0.968140  2 H  s                 45      0.604425  6 H  s          
     8     -0.402989  1 O  py                 9     -0.356469  1 O  pz         
    31      0.351571  4 O  px                33     -0.231165  4 O  pz         
    27      0.217153  4 O  s                  3     -0.192579  1 O  s          

 Vector   15  Occ=0.000000D+00  E= 7.584958D-01
              MO Center= -6.0D-02,  1.9D-01,  1.1D-01, r^2= 4.4D+00
   Bfn.  Coefficient  Atom+Function         Bfn.  Coefficient  Atom+Function  
  ----- ------------  ---------------      ----- ------------  ---------------
    20      0.830947  3 H  s                 39      0.721516  5 H  s          
    44     -0.590295  6 H  s                 21     -0.503170  3 H  s          
    40     -0.462813  5 H  s                 45      0.391487  6 H  s          
    15     -0.366204  2 H  s                 31     -0.310847  4 O  px         
    16      0.261636  2 H  s                  8     -0.227445  1 O  py         

 Vector   16  Occ=0.000000D+00  E= 8.070192D-01
              MO Center=  4.4D-01, -4.8D-01, -1.3D-01, r^2= 5.8D+00
   Bfn.  Coefficient  Atom+Function         Bfn.  Coefficient  Atom+Function  
  ----- ------------  ---------------      ----- ------------  ---------------
    15      0.920410  2 H  s                 16     -0.699687  2 H  s          
    39      0.587358  5 H  s                 21      0.537402  3 H  s          
    44     -0.531810  6 H  s                 20     -0.526946  3 H  s          
    40     -0.527523  5 H  s                 45      0.456846  6 H  s          
     8      0.256478  1 O  py                 5      0.220685  1 O  py         

 Vector   17  Occ=0.000000D+00  E= 8.322679D-01
              MO Center= -1.8D+00,  1.1D+00, -1.7D-02, r^2= 2.7D+00
   Bfn.  Coefficient  Atom+Function         Bfn.  Coefficient  Atom+Function  
  ----- ------------  ---------------      ----- ------------  ---------------
    44      0.939564  6 H  s                 45     -0.652767  6 H  s          
    39      0.587174  5 H  s                 40     -0.393068  5 H  s          
    27      0.284333  4 O  s                 46     -0.265432  6 H  px         
    15      0.255543  2 H  s                 29     -0.246034  4 O  py         
    26     -0.239554  4 O  s                 41      0.217764  5 H  px         

 Vector   18  Occ=0.000000D+00  E= 8.464532D-01
              MO Center=  8.9D-01, -6.5D-01,  6.4D-02, r^2= 3.9D+00
   Bfn.  Coefficient  Atom+Function         Bfn.  Coefficient  Atom+Function  
  ----- ------------  ---------------      ----- ------------  ---------------
    20      0.751379  3 H  s                 15      0.708371  2 H  s          
    21     -0.646483  3 H  s                 39     -0.610817  5 H  s          
    40      0.571686  5 H  s                 16     -0.437602  2 H  s          
     3      0.296448  1 O  s                  2     -0.223097  1 O  s          
    18     -0.222445  2 H  py                 4      0.185921  1 O  px         

 Vector   19  Occ=0.000000D+00  E= 1.161372D+00
              MO Center= -8.3D-01,  3.5D-01,  1.4D-01, r^2= 4.1D+00
   Bfn.  Coefficient  Atom+Function         Bfn.  Coefficient  Atom+Function  
  ----- ------------  ---------------      ----- ------------  ---------------
    32      0.835577  4 O  py                33     -0.668066  4 O  pz         
    27      0.617042  4 O  s                  9      0.575275  1 O  pz         
    29     -0.511258  4 O  py                39     -0.440735  5 H  s          
    44     -0.441390  6 H  s                 30      0.412566  4 O  pz         
    20     -0.372505  3 H  s                  6     -0.363108  1 O  pz         

 Vector   20  Occ=0.000000D+00  E= 1.168537D+00
              MO Center=  1.5D+00, -5.8D-01, -1.8D-01, r^2= 2.4D+00
   Bfn.  Coefficient  Atom+Function         Bfn.  Coefficient  Atom+Function  
  ----- ------------  ---------------      ----- ------------  ---------------
     8      0.870175  1 O  py                 7      0.657162  1 O  px         
     3     -0.638445  1 O  s                 15      0.517438  2 H  s          
     9     -0.502498  1 O  pz                 5     -0.483152  1 O  py         
     4     -0.463508  1 O  px                32      0.343113  4 O  py         
     6      0.328100  1 O  pz                20      0.329676  3 H  s          


 center of mass
 --------------
 x =   0.03366526 y =  -0.01052692 z =  -0.00109502

 moments of inertia (a.u.)
 ------------------
         108.395060954642         190.331744256289          47.361468262020
         190.331744256289         393.873775526971         -22.607129264909
          47.361468262020         -22.607129264909         483.854502743740

  Mulliken analysis of the total density
  --------------------------------------

    Atom       Charge   Shell Charges
 -----------   ------   -------------------------------------------------------
    1 O    8     8.34   2.00  0.83  0.84  2.81  1.85  0.01
    2 H    1     0.84   0.68  0.07  0.08
    3 H    1     0.82   0.66  0.08  0.08
    4 O    8     8.34   2.00  0.83  0.84  2.81  1.84  0.01
    5 H    1     0.83   0.67  0.08  0.08
    6 H    1     0.84   0.68  0.07  0.09

       Multipole analysis of the density wrt the origin
       ------------------------------------------------

     L   x y z        total         open         nuclear
     -   - - -        -----         ----         -------
     0   0 0 0     -0.000000      0.000000     20.000000

     1   1 0 0     -0.566337      0.000000      0.000000
     1   0 1 0      0.172741      0.000000     -0.000000
     1   0 0 1      0.016049      0.000000      0.000000

     2   2 0 0    -10.353700      0.000000    212.965763
     2   1 1 0     -3.553580      0.000000   -109.713808
     2   1 0 1      2.063394      0.000000    -23.317053
     2   0 2 0     -4.570740      0.000000     61.293594
     2   0 1 1     -0.929048      0.000000     11.324515
     2   0 0 2     -9.362470      0.000000      5.812388


 Parallel integral file used      10 records with       0 large values

                              NWChem Gradients Module
                              -----------------------



  wavefunction    =   RHF     



                         RHF ENERGY GRADIENTS

    atom               coordinates                        gradient
                 x          y          z           x          y          z
   1 O       3.349749  -1.559497  -0.461958    0.023617   0.000581  -0.034731
   2 H       3.081157  -3.359763  -0.570219   -0.000126  -0.020810  -0.004987
   3 H       2.429097  -0.988648   1.077354   -0.021890   0.019303   0.039670
   4 O      -3.196873   1.511693   0.456985   -0.010050  -0.020879   0.025427
   5 H      -2.067251   2.142075  -0.881526    0.026154   0.011741  -0.027397
   6 H      -4.666011   2.588763   0.414171   -0.017705   0.010063   0.002017

                 ----------------------------------------
                 |  Time  |  1-e(secs)   |  2-e(secs)   |
                 ----------------------------------------
                 |  CPU   |       0.00   |       0.21   |
                 ----------------------------------------
                 |  WALL  |       0.00   |       0.21   |
                 ----------------------------------------

 Task  times  cpu:        0.5s     wall:        0.5s


                                NWChem Input Module
                                -------------------


 Summary of allocated global arrays
-----------------------------------
  No active global arrays



                         GA Statistics for process    0
                         ------------------------------

       create   destroy   get      put      acc     scatter   gather  read&inc
calls:  249      249     6355     2318     2356        0        0      139     
number of processes/call 0.00e+00 0.00e+00 0.00e+00 0.00e+00 0.00e+00
bytes total:             6.29e+06 3.74e+06 9.06e+05 0.00e+00 0.00e+00 1.11e+03
bytes remote:            0.00e+00 0.00e+00 0.00e+00 0.00e+00 0.00e+00 0.00e+00
Max memory consumed for GA by this process: 239616 bytes

MA_summarize_allocated_blocks: starting scan ...
MA_summarize_allocated_blocks: scan completed: 0 heap blocks, 0 stack blocks
MA usage statistics:

	allocation statistics:
					      heap	     stack
					      ----	     -----
	current number of blocks	         0	         0
	maximum number of blocks	        18	        28
	current total bytes		         0	         0
	maximum total bytes		  12084288	  22510264
	maximum total K-bytes		     12085	     22511
	maximum total M-bytes		        13	        23


                                     CITATION
                                     --------
                Please cite the following reference when publishing
                           results obtained with NWChem:

          E. Aprà, E. J. Bylaska, W. A. de Jong, N. Govind, K. Kowalski,
       T. P. Straatsma, M. Valiev, H. J. J. van Dam, Y. Alexeev, J. Anchell,
       V. Anisimov, F. W. Aquino, R. Atta-Fynn, J. Autschbach, N. P. Bauman,
     J. C. Becca, D. E. Bernholdt, K. Bhaskaran-Nair, S. Bogatko, P. Borowski,
        J. Boschen, J. Brabec, A. Bruner, E. Cauët, Y. Chen, G. N. Chuev,
      C. J. Cramer, J. Daily, M. J. O. Deegan, T. H. Dunning Jr., M. Dupuis,
   K. G. Dyall, G. I. Fann, S. A. Fischer, A. Fonari, H. Früchtl, L. Gagliardi,
      J. Garza, N. Gawande, S. Ghosh, K. Glaesemann, A. W. Götz, J. Hammond,
       V. Helms, E. D. Hermes, K. Hirao, S. Hirata, M. Jacquelin, L. Jensen,
   B. G. Johnson, H. Jónsson, R. A. Kendall, M. Klemm, R. Kobayashi, V. Konkov,
      S. Krishnamoorthy, M. Krishnan, Z. Lin, R. D. Lins, R. J. Littlefield,
      A. J. Logsdail, K. Lopata, W. Ma, A. V. Marenich, J. Martin del Campo,
   D. Mejia-Rodriguez, J. E. Moore, J. M. Mullin, T. Nakajima, D. R. Nascimento,
    J. A. Nichols, P. J. Nichols, J. Nieplocha, A. Otero-de-la-Roza, B. Palmer,
    A. Panyala, T. Pirojsirikul, B. Peng, R. Peverati, J. Pittner, L. Pollack,
   R. M. Richard, P. Sadayappan, G. C. Schatz, W. A. Shelton, D. W. Silverstein,
   D. M. A. Smith, T. A. Soares, D. Song, M. Swart, H. L. Taylor, G. S. Thomas,
            V. Tipparaju, D. G. Truhlar, K. Tsemekhman, T. Van Voorhis,
     Á. Vázquez-Mayagoitia, P. Verma, O. Villa, A. Vishnu, K. D. Vogiatzis,
        D. Wang, J. H. Weare, M. J. Williamson, T. L. Windus, K. Woliński,
        A. T. Wong, Q. Wu, C. Yang, Q. Yu, M. Zacharias, Z. Zhang, Y. Zhao,
                                and R. J. Harrison
                        "NWChem: Past, present, and future
                         J. Chem. Phys. 152, 184102 (2020)
                               doi:10.1063/5.0004997

                                      AUTHORS
                                      -------
     E. Apra, E. J. Bylaska, N. Govind, K. Kowalski, M. Valiev, W. A. de Jong,
      T. P. Straatsma, H. J. J. van Dam, D. Wang, T. L. Windus, N. P. Bauman,
       A. Panyala, J. Hammond, J. Autschbach, K. Bhaskaran-Nair, J. Brabec,
    K. Lopata, S. A. Fischer, S. Krishnamoorthy, M. Jacquelin, W. Ma, M. Klemm,
       O. Villa, Y. Chen, V. Anisimov, F. Aquino, S. Hirata, M. T. Hackler,
           Eric Hermes, L. Jensen, J. E. Moore, J. C. Becca, V. Konjkov,
            D. Mejia-Rodriguez, T. Risthaus, M. Malagoli, A. Marenich,
   A. Otero-de-la-Roza, J. Mullin, P. Nichols, R. Peverati, J. Pittner, Y. Zhao,
        P.-D. Fan, A. Fonari, M. J. Williamson, R. J. Harrison, J. R. Rehr,
      M. Dupuis, D. Silverstein, D. M. A. Smith, J. Nieplocha, V. Tipparaju,
      M. Krishnan, B. E. Van Kuiken, A. Vazquez-Mayagoitia, M. Swart, Q. Wu,
   T. Van Voorhis, A. A. Auer, M. Nooijen, L. D. Crosby, E. Brown, G. Cisneros,
     G. I. Fann, H. Fruchtl, J. Garza, K. Hirao, R. A. Kendall, J. A. Nichols,
       K. Tsemekhman, K. Wolinski, J. Anchell, D. E. Bernholdt, P. Borowski,
       T. Clark, D. Clerc, H. Dachsel, M. J. O. Deegan, K. Dyall, D. Elwood,
      E. Glendening, M. Gutowski, A. C. Hess, J. Jaffe, B. G. Johnson, J. Ju,
        R. Kobayashi, R. Kutteh, Z. Lin, R. Littlefield, X. Long, B. Meng,
      T. Nakajima, S. Niu, L. Pollack, M. Rosing, K. Glaesemann, G. Sandrone,
      M. Stave, H. Taylor, G. Thomas, J. H. van Lenthe, A. T. Wong, Z. Zhang.

 Total times  cpu:        0.5s     wall:        0.6s
