 argument  1 = nwchem/input_2_12.nw



============================== echo of input deck ==============================
echo
memory 1000 mb
geometry noautosym noautoz
O -0.64071556 -0.48854013 1.6410419
H -0.19915392 0.37247798 1.5285638
H -1.54433112 -0.32408724 1.298356
O -2.88801599 -0.0663369 0.05761427
H -2.29024563 0.26724676 -0.65069518
H -3.66545029 0.50362404 0.03495814
end
basis spherical
 * library cc-pvdz
end
task scf gradient
================================================================================


                                         
                                         


             Northwest Computational Chemistry Package (NWChem) 7.0.2
             --------------------------------------------------------


                    Environmental Molecular Sciences Laboratory
                       Pacific Northwest National Laboratory
                                Richland, WA 99352

                              Copyright (c) 1994-2020
                       Pacific Northwest National Laboratory
                            Battelle Memorial Institute

             NWChem is an open-source computational chemistry package
                        distributed under the terms of the
                      Educational Community License (ECL) 2.0
             A copy of the license is included with this distribution
                              in the LICENSE.TXT file

                                  ACKNOWLEDGMENT
                                  --------------

            This software and its documentation were developed at the
            EMSL at Pacific Northwest National Laboratory, a multiprogram
            national laboratory, operated for the U.S. Department of Energy
            by Battelle under Contract Number DE-AC05-76RL01830. Support
            for this work was provided by the Department of Energy Office
            of Biological and Environmental Research, Office of Basic
            Energy Sciences, and the Office of Advanced Scientific Computing.


           Job information
           ---------------

    hostname        = pop-os
    program         = nwchem
    date            = Tue Jul  6 14:07:16 2021

    compiled        = Wed_Jan_06_19:48:08_2021
    source          = /build/nwchem-ksKH2r/nwchem-7.0.2
    nwchem branch   = 7.0.2
    nwchem revision = N/A
    ga revision     = 5.7.1
    use scalapack   = T
    input           = nwchem/input_2_12.nw
    prefix          = input_2_12.
    data base       = ./input_2_12.db
    status          = startup
    nproc           =        1
    time left       =     -1s



           Memory information
           ------------------

    heap     =   32767998 doubles =    250.0 Mbytes
    stack    =   32767995 doubles =    250.0 Mbytes
    global   =   65536000 doubles =    500.0 Mbytes (distinct from heap & stack)
    total    =  131071993 doubles =   1000.0 Mbytes
    verify   = yes
    hardfail = no 


           Directory information
           ---------------------

  0 permanent = .
  0 scratch   = .




                                NWChem Input Module
                                -------------------



 Scaling coordinates for geometry "geometry" by  1.889725989
 (inverse scale =  0.529177249)



                             Geometry "geometry" -> ""
                             -------------------------

 Output coordinates in angstroms (scale by  1.889725989 to convert to a.u.)

  No.       Tag          Charge          X              Y              Z
 ---- ---------------- ---------- -------------- -------------- --------------
    1 O                    8.0000     1.15573611    -0.30755240     0.85102029
    2 H                    1.0000     1.59729775     0.55346572     0.73854219
    3 H                    1.0000     0.25212055    -0.14309951     0.50833439
    4 O                    8.0000    -1.09156432     0.11465084    -0.73240734
    5 H                    1.0000    -0.49379396     0.44823450    -1.44071679
    6 H                    1.0000    -1.86899862     0.68461178    -0.75506347

      Atomic Mass 
      ----------- 

      O                 15.994910
      H                  1.007825


 Effective nuclear repulsion energy (a.u.)      37.2720324145

            Nuclear Dipole moment (a.u.) 
            ----------------------------
        X                 Y               Z
 ---------------- ---------------- ----------------
     0.0000000000     0.0000000000     0.0000000000


            XYZ format geometry
            -------------------
     6
 geometry
 O                     1.15573611    -0.30755240     0.85102029
 H                     1.59729775     0.55346572     0.73854219
 H                     0.25212055    -0.14309951     0.50833439
 O                    -1.09156432     0.11465084    -0.73240734
 H                    -0.49379396     0.44823450    -1.44071679
 H                    -1.86899862     0.68461178    -0.75506347

 ==============================================================================
                                internuclear distances
 ------------------------------------------------------------------------------
       center one      |      center two      | atomic units |  angstroms
 ------------------------------------------------------------------------------
    2 H                |   1 O                |     1.84089  |     0.97416
    3 H                |   1 O                |     1.85251  |     0.98031
    5 H                |   4 O                |     1.86146  |     0.98504
    6 H                |   4 O                |     1.82216  |     0.96425
 ------------------------------------------------------------------------------
                         number of included internuclear distances:          4
 ==============================================================================



 ==============================================================================
                                 internuclear angles
 ------------------------------------------------------------------------------
        center 1       |       center 2       |       center 3       |  degrees
 ------------------------------------------------------------------------------
    2 H                |   1 O                |   3 H                |   103.25
    5 H                |   4 O                |   6 H                |   105.80
 ------------------------------------------------------------------------------
                            number of included internuclear angles:          2
 ==============================================================================





 Summary of "ao basis" -> "" (spherical)
 ------------------------------------------------------------------------------
       Tag                 Description            Shells   Functions and Types
 ---------------- ------------------------------  ------  ---------------------
 *                          cc-pvdz                   on all atoms 


                      Basis "ao basis" -> "ao basis" (spherical)
                      -----
  O (Oxygen)
  ----------
            Exponent  Coefficients 
       -------------- ---------------------------------------------------------
  1 S  1.17200000E+04  0.000710
  1 S  1.75900000E+03  0.005470
  1 S  4.00800000E+02  0.027837
  1 S  1.13700000E+02  0.104800
  1 S  3.70300000E+01  0.283062
  1 S  1.32700000E+01  0.448719
  1 S  5.02500000E+00  0.270952
  1 S  1.01300000E+00  0.015458

  2 S  1.17200000E+04 -0.000160
  2 S  1.75900000E+03 -0.001263
  2 S  4.00800000E+02 -0.006267
  2 S  1.13700000E+02 -0.025716
  2 S  3.70300000E+01 -0.070924
  2 S  1.32700000E+01 -0.165411
  2 S  5.02500000E+00 -0.116955
  2 S  1.01300000E+00  0.557368

  3 S  3.02300000E-01  1.000000

  4 P  1.77000000E+01  0.043018
  4 P  3.85400000E+00  0.228913
  4 P  1.04600000E+00  0.508728

  5 P  2.75300000E-01  1.000000

  6 D  1.18500000E+00  1.000000

  H (Hydrogen)
  ------------
            Exponent  Coefficients 
       -------------- ---------------------------------------------------------
  1 S  1.30100000E+01  0.019685
  1 S  1.96200000E+00  0.137977
  1 S  4.44600000E-01  0.478148

  2 S  1.22000000E-01  1.000000

  3 P  7.27000000E-01  1.000000



 Summary of "ao basis" -> "ao basis" (spherical)
 ------------------------------------------------------------------------------
       Tag                 Description            Shells   Functions and Types
 ---------------- ------------------------------  ------  ---------------------
 O                          cc-pvdz                  6       14   3s2p1d
 H                          cc-pvdz                  3        5   2s1p


                                 NWChem SCF Module
                                 -----------------



  ao basis        = "ao basis"
  functions       =    48
  atoms           =     6
  closed shells   =    10
  open shells     =     0
  charge          =   0.00
  wavefunction    = RHF 
  input vectors   = atomic
  output vectors  = ./input_2_12.movecs
  use symmetry    = F
  symmetry adapt  = F


 Summary of "ao basis" -> "ao basis" (spherical)
 ------------------------------------------------------------------------------
       Tag                 Description            Shells   Functions and Types
 ---------------- ------------------------------  ------  ---------------------
 O                          cc-pvdz                  6       14   3s2p1d
 H                          cc-pvdz                  3        5   2s1p



 Forming initial guess at       0.0s


      Superposition of Atomic Density Guess
      -------------------------------------

 Sum of atomic energies:        -151.52445821

      Non-variational initial energy
      ------------------------------

 Total energy =    -151.837877
 1-e energy   =    -281.440042
 2-e energy   =      92.330133
 HOMO         =      -0.461772
 LUMO         =       0.064402


 Starting SCF solution at       0.1s



 ----------------------------------------------
         Quadratically convergent ROHF

 Convergence threshold     :          1.000E-04
 Maximum no. of iterations :           30
 Final Fock-matrix accuracy:          1.000E-07
 ----------------------------------------------


 Integral file          = ./input_2_12.aoints.0
 Record size in doubles =  65536        No. of integs per rec  =  43688
 Max. records in memory =     23        Max. records in file   = 400656
 No. of bits per label  =      8        No. of bits per value  =     64


 #quartets = 4.223D+04 #integrals = 6.122D+05 #direct =  0.0% #cached =100.0%


              iter       energy          gnorm     gmax       time
             ----- ------------------- --------- --------- --------
                 1     -151.9907257315  1.13D+00  3.22D-01      0.3
                 2     -152.0516521199  2.45D-01  7.30D-02      0.4
                 3     -152.0564230699  2.08D-02  4.58D-03      0.4
                 4     -152.0564593691  3.73D-04  1.00D-04      0.4
                 5     -152.0564593783  6.76D-06  1.53D-06      0.5


       Final RHF  results 
       ------------------ 

         Total SCF energy =   -152.056459378302
      One-electron energy =   -284.094163622354
      Two-electron energy =     94.765671829587
 Nuclear repulsion energy =     37.272032414465

        Time for solution =      0.3s


             Final eigenvalues
             -----------------

              1      
    1  -20.5893
    2  -20.5192
    3   -1.3652
    4   -1.2965
    5   -0.7300
    6   -0.6663
    7   -0.5942
    8   -0.5478
    9   -0.5117
   10   -0.4611
   11    0.1561
   12    0.2214
   13    0.2446
   14    0.3697
   15    0.7351
   16    0.7973
   17    0.8130
   18    0.8647
   19    1.1276
   20    1.1812

                       ROHF Final Molecular Orbital Analysis
                       -------------------------------------

 Vector    2  Occ=2.000000D+00  E=-2.051918D+01
              MO Center=  1.2D+00, -3.1D-01,  8.5D-01, r^2= 1.5D-02
   Bfn.  Coefficient  Atom+Function         Bfn.  Coefficient  Atom+Function  
  ----- ------------  ---------------      ----- ------------  ---------------
     1      1.000938  1 O  s          

 Vector    3  Occ=2.000000D+00  E=-1.365232D+00
              MO Center= -1.1D+00,  2.4D-01, -8.1D-01, r^2= 5.8D-01
   Bfn.  Coefficient  Atom+Function         Bfn.  Coefficient  Atom+Function  
  ----- ------------  ---------------      ----- ------------  ---------------
    26      0.443201  4 O  s                 27      0.390354  4 O  s          
    44      0.187123  6 H  s                 39      0.177171  5 H  s          

 Vector    4  Occ=2.000000D+00  E=-1.296540D+00
              MO Center=  1.1D+00, -1.6D-01,  7.7D-01, r^2= 6.0D-01
   Bfn.  Coefficient  Atom+Function         Bfn.  Coefficient  Atom+Function  
  ----- ------------  ---------------      ----- ------------  ---------------
     2      0.441052  1 O  s                  3      0.389897  1 O  s          
    15      0.188081  2 H  s                 20      0.178888  3 H  s          

 Vector    5  Occ=2.000000D+00  E=-7.300261D-01
              MO Center= -1.1D+00,  2.7D-01, -8.2D-01, r^2= 9.5D-01
   Bfn.  Coefficient  Atom+Function         Bfn.  Coefficient  Atom+Function  
  ----- ------------  ---------------      ----- ------------  ---------------
    28      0.440935  4 O  px                44     -0.331650  6 H  s          
    39      0.301037  5 H  s                 31      0.207983  4 O  px         
    30     -0.179840  4 O  pz         

 Vector    6  Occ=2.000000D+00  E=-6.663358D-01
              MO Center=  7.0D-01, -6.9D-02,  5.0D-01, r^2= 1.7D+00
   Bfn.  Coefficient  Atom+Function         Bfn.  Coefficient  Atom+Function  
  ----- ------------  ---------------      ----- ------------  ---------------
     4      0.392262  1 O  px                20     -0.296939  3 H  s          
    15      0.285197  2 H  s                 30     -0.207039  4 O  pz         
     7      0.183744  1 O  px                 5      0.179720  1 O  py         

 Vector    7  Occ=2.000000D+00  E=-5.942379D-01
              MO Center= -6.4D-01,  4.2D-02, -4.2D-01, r^2= 1.9D+00
   Bfn.  Coefficient  Atom+Function         Bfn.  Coefficient  Atom+Function  
  ----- ------------  ---------------      ----- ------------  ---------------
    29      0.381707  4 O  py                27     -0.309430  4 O  s          
    30     -0.305319  4 O  pz                32      0.252262  4 O  py         
    33     -0.200807  4 O  pz                39      0.187831  5 H  s          
    44      0.182064  6 H  s                  5     -0.176936  1 O  py         
    15     -0.169099  2 H  s          

 Vector    8  Occ=2.000000D+00  E=-5.477921D-01
              MO Center=  1.1D-01, -1.2D-01,  9.9D-02, r^2= 2.7D+00
   Bfn.  Coefficient  Atom+Function         Bfn.  Coefficient  Atom+Function  
  ----- ------------  ---------------      ----- ------------  ---------------
    29      0.342793  4 O  py                 5      0.339853  1 O  py         
    32      0.260627  4 O  py                 3     -0.253338  1 O  s          
     8      0.227190  1 O  py                30      0.199987  4 O  pz         
    15      0.170930  2 H  s                 33      0.164950  4 O  pz         

 Vector    9  Occ=2.000000D+00  E=-5.116585D-01
              MO Center= -9.2D-02, -7.7D-02, -3.3D-02, r^2= 2.6D+00
   Bfn.  Coefficient  Atom+Function         Bfn.  Coefficient  Atom+Function  
  ----- ------------  ---------------      ----- ------------  ---------------
    30      0.343929  4 O  pz                 5     -0.280942  1 O  py         
    33      0.260688  4 O  pz                29      0.245263  4 O  py         
    28      0.229515  4 O  px                 4      0.220557  1 O  px         
    32      0.199023  4 O  py                 8     -0.195615  1 O  py         
     3      0.174832  1 O  s                 31      0.173582  4 O  px         

 Vector   10  Occ=2.000000D+00  E=-4.610781D-01
              MO Center=  1.1D+00, -2.8D-01,  8.4D-01, r^2= 6.3D-01
   Bfn.  Coefficient  Atom+Function         Bfn.  Coefficient  Atom+Function  
  ----- ------------  ---------------      ----- ------------  ---------------
     6      0.578041  1 O  pz                 9      0.462792  1 O  pz         
     4     -0.177582  1 O  px                 5      0.164750  1 O  py         

 Vector   11  Occ=0.000000D+00  E= 1.560632D-01
              MO Center= -8.2D-01,  6.6D-01, -9.6D-01, r^2= 4.0D+00
   Bfn.  Coefficient  Atom+Function         Bfn.  Coefficient  Atom+Function  
  ----- ------------  ---------------      ----- ------------  ---------------
    27      0.910043  4 O  s                 40     -0.763261  5 H  s          
    45     -0.741187  6 H  s                 16     -0.418000  2 H  s          
     3      0.281083  1 O  s                 32      0.238926  4 O  py         
    33     -0.193337  4 O  pz         

 Vector   12  Occ=0.000000D+00  E= 2.213653D-01
              MO Center= -1.4D-01,  7.9D-01, -1.2D-01, r^2= 6.4D+00
   Bfn.  Coefficient  Atom+Function         Bfn.  Coefficient  Atom+Function  
  ----- ------------  ---------------      ----- ------------  ---------------
    45      1.156046  6 H  s                 16     -1.007443  2 H  s          
    40     -0.668859  5 H  s                  3      0.548661  1 O  s          
    31      0.403510  4 O  px                27     -0.296959  4 O  s          
     8      0.286381  1 O  py                28      0.193658  4 O  px         
     7      0.167587  1 O  px         

 Vector   13  Occ=0.000000D+00  E= 2.445898D-01
              MO Center=  2.3D-01,  6.2D-01, -5.7D-01, r^2= 5.5D+00
   Bfn.  Coefficient  Atom+Function         Bfn.  Coefficient  Atom+Function  
  ----- ------------  ---------------      ----- ------------  ---------------
    40      1.294389  5 H  s                 16     -0.903957  2 H  s          
    45     -0.829047  6 H  s                  3      0.623814  1 O  s          
    31     -0.400191  4 O  px                33      0.318547  4 O  pz         
     8      0.263701  1 O  py                27     -0.211512  4 O  s          
    21     -0.182363  3 H  s                 30      0.171441  4 O  pz         

 Vector   14  Occ=0.000000D+00  E= 3.697133D-01
              MO Center=  8.5D-02, -1.1D-01,  5.9D-01, r^2= 3.2D+00
   Bfn.  Coefficient  Atom+Function         Bfn.  Coefficient  Atom+Function  
  ----- ------------  ---------------      ----- ------------  ---------------
    21      2.051795  3 H  s                 16     -0.939721  2 H  s          
     7      0.627379  1 O  px                 3     -0.614279  1 O  s          
    45     -0.369756  6 H  s                 31     -0.276700  4 O  px         
     4      0.258283  1 O  px                33     -0.246477  4 O  pz         
    40     -0.231324  5 H  s                  9      0.161860  1 O  pz         

 Vector   15  Occ=0.000000D+00  E= 7.350740D-01
              MO Center= -5.7D-01,  2.2D-01, -4.4D-01, r^2= 3.0D+00
   Bfn.  Coefficient  Atom+Function         Bfn.  Coefficient  Atom+Function  
  ----- ------------  ---------------      ----- ------------  ---------------
    39      0.873490  5 H  s                 44     -0.736594  6 H  s          
    21      0.684042  3 H  s                 40     -0.681761  5 H  s          
    45      0.502987  6 H  s                 20     -0.494909  3 H  s          
    31     -0.440841  4 O  px                15      0.400994  2 H  s          
    16     -0.292173  2 H  s                  3     -0.220758  1 O  s          

 Vector   16  Occ=0.000000D+00  E= 7.973461D-01
              MO Center= -7.5D-02,  2.5D-01,  9.6D-02, r^2= 4.0D+00
   Bfn.  Coefficient  Atom+Function         Bfn.  Coefficient  Atom+Function  
  ----- ------------  ---------------      ----- ------------  ---------------
    44      0.773744  6 H  s                 15      0.743152  2 H  s          
    20     -0.704995  3 H  s                 21      0.647706  3 H  s          
    45     -0.623873  6 H  s                 16     -0.600574  2 H  s          
     7     -0.281430  1 O  px                28      0.225160  4 O  px         
    33     -0.164459  4 O  pz                40      0.162827  5 H  s          

 Vector   17  Occ=0.000000D+00  E= 8.129617D-01
              MO Center= -7.1D-01,  4.2D-01, -9.7D-01, r^2= 2.4D+00
   Bfn.  Coefficient  Atom+Function         Bfn.  Coefficient  Atom+Function  
  ----- ------------  ---------------      ----- ------------  ---------------
    39      0.907070  5 H  s                 40     -0.693964  5 H  s          
    44      0.612590  6 H  s                 20      0.495797  3 H  s          
    27      0.330344  4 O  s                 45     -0.329922  6 H  s          
    21     -0.295994  3 H  s                 26     -0.284133  4 O  s          
    29     -0.205658  4 O  py                41      0.203103  5 H  px         

 Vector   18  Occ=0.000000D+00  E= 8.646955D-01
              MO Center=  9.0D-01,  2.8D-01,  5.7D-01, r^2= 2.2D+00
   Bfn.  Coefficient  Atom+Function         Bfn.  Coefficient  Atom+Function  
  ----- ------------  ---------------      ----- ------------  ---------------
    15      0.871557  2 H  s                 21     -0.669570  3 H  s          
    20      0.614422  3 H  s                 16     -0.578003  2 H  s          
     3      0.405327  1 O  s                  5     -0.301943  1 O  py         
    22     -0.241276  3 H  px                 2     -0.229308  1 O  s          
    17      0.217341  2 H  px                45      0.212555  6 H  s          

 Vector   19  Occ=0.000000D+00  E= 1.127565D+00
              MO Center= -5.3D-01,  3.7D-02, -3.6D-01, r^2= 2.5D+00
   Bfn.  Coefficient  Atom+Function         Bfn.  Coefficient  Atom+Function  
  ----- ------------  ---------------      ----- ------------  ---------------
    32      1.027009  4 O  py                29     -0.732682  4 O  py         
    27      0.528807  4 O  s                  8      0.407374  1 O  py         
    44     -0.346918  6 H  s                  5     -0.324816  1 O  py         
     3      0.320275  1 O  s                 20     -0.288794  3 H  s          
    39     -0.287915  5 H  s                  7     -0.253847  1 O  px         

 Vector   20  Occ=0.000000D+00  E= 1.181179D+00
              MO Center=  2.2D-01, -6.1D-02,  1.1D-01, r^2= 3.4D+00
   Bfn.  Coefficient  Atom+Function         Bfn.  Coefficient  Atom+Function  
  ----- ------------  ---------------      ----- ------------  ---------------
    31      0.894989  4 O  px                 9     -0.697754  1 O  pz         
    45      0.590799  6 H  s                  6      0.556533  1 O  pz         
    20     -0.537393  3 H  s                 40     -0.471677  5 H  s          
    28     -0.430874  4 O  px                 3      0.414763  1 O  s          
     8      0.402781  1 O  py                 7     -0.390037  1 O  px         


 center of mass
 --------------
 x =   0.02670456 y =  -0.08027440 z =   0.04935981

 moments of inertia (a.u.)
 ------------------
          93.842292557698          29.723799716024        -114.143102082776
          29.723799716024         251.522592659702          22.578773392201
        -114.143102082776          22.578773392201         176.695434391073

  Mulliken analysis of the total density
  --------------------------------------

    Atom       Charge   Shell Charges
 -----------   ------   -------------------------------------------------------
    1 O    8     8.37   2.00  0.83  0.84  2.81  1.87  0.01
    2 H    1     0.86   0.69  0.09  0.08
    3 H    1     0.81   0.64  0.08  0.09
    4 O    8     8.31   2.00  0.83  0.84  2.82  1.81  0.01
    5 H    1     0.82   0.66  0.08  0.08
    6 H    1     0.83   0.68  0.07  0.08

       Multipole analysis of the density wrt the origin
       ------------------------------------------------

     L   x y z        total         open         nuclear
     -   - - -        -----         ----         -------
     0   0 0 0     -0.000000      0.000000     20.000000

     1   1 0 0     -0.649205      0.000000      0.000000
     1   0 1 0      1.333999      0.000000      0.000000
     1   0 0 1     -0.937081      0.000000      0.000000

     2   2 0 0     -7.890888      0.000000     94.882544
     2   1 1 0      0.337588      0.000000    -16.061533
     2   1 0 1     -0.352691      0.000000     63.188769
     2   0 2 0     -8.955979      0.000000      6.636021
     2   0 1 1     -0.375015      0.000000    -12.828422
     2   0 0 2     -9.022533      0.000000     48.333936


 Parallel integral file used      15 records with       0 large values

                              NWChem Gradients Module
                              -----------------------



  wavefunction    =   RHF     



                         RHF ENERGY GRADIENTS

    atom               coordinates                        gradient
                 x          y          z           x          y          z
   1 O       2.184025  -0.581190   1.608195    0.011922  -0.032956   0.013129
   2 H       3.018455   1.045899   1.395642    0.012541   0.026301  -0.004678
   3 H       0.476439  -0.270419   0.960613   -0.028609   0.008358  -0.012713
   4 O      -2.062757   0.216659  -1.384049   -0.005826  -0.024772   0.028960
   5 H      -0.933135   0.847040  -2.722560    0.026046   0.012662  -0.025671
   6 H      -3.531895   1.293729  -1.426863   -0.016074   0.010406   0.000973

                 ----------------------------------------
                 |  Time  |  1-e(secs)   |  2-e(secs)   |
                 ----------------------------------------
                 |  CPU   |       0.00   |       0.32   |
                 ----------------------------------------
                 |  WALL  |       0.00   |       0.32   |
                 ----------------------------------------

 Task  times  cpu:        0.8s     wall:        0.8s


                                NWChem Input Module
                                -------------------


 Summary of allocated global arrays
-----------------------------------
  No active global arrays



                         GA Statistics for process    0
                         ------------------------------

       create   destroy   get      put      acc     scatter   gather  read&inc
calls:  249      249     6355     2333     2356        0        0      115     
number of processes/call 0.00e+00 0.00e+00 0.00e+00 0.00e+00 0.00e+00
bytes total:             6.29e+06 3.74e+06 9.06e+05 0.00e+00 0.00e+00 9.20e+02
bytes remote:            0.00e+00 0.00e+00 0.00e+00 0.00e+00 0.00e+00 0.00e+00
Max memory consumed for GA by this process: 239616 bytes

MA_summarize_allocated_blocks: starting scan ...
MA_summarize_allocated_blocks: scan completed: 0 heap blocks, 0 stack blocks
MA usage statistics:

	allocation statistics:
					      heap	     stack
					      ----	     -----
	current number of blocks	         0	         0
	maximum number of blocks	        18	        28
	current total bytes		         0	         0
	maximum total bytes		  12084288	  22510264
	maximum total K-bytes		     12085	     22511
	maximum total M-bytes		        13	        23


                                     CITATION
                                     --------
                Please cite the following reference when publishing
                           results obtained with NWChem:

          E. Aprà, E. J. Bylaska, W. A. de Jong, N. Govind, K. Kowalski,
       T. P. Straatsma, M. Valiev, H. J. J. van Dam, Y. Alexeev, J. Anchell,
       V. Anisimov, F. W. Aquino, R. Atta-Fynn, J. Autschbach, N. P. Bauman,
     J. C. Becca, D. E. Bernholdt, K. Bhaskaran-Nair, S. Bogatko, P. Borowski,
        J. Boschen, J. Brabec, A. Bruner, E. Cauët, Y. Chen, G. N. Chuev,
      C. J. Cramer, J. Daily, M. J. O. Deegan, T. H. Dunning Jr., M. Dupuis,
   K. G. Dyall, G. I. Fann, S. A. Fischer, A. Fonari, H. Früchtl, L. Gagliardi,
      J. Garza, N. Gawande, S. Ghosh, K. Glaesemann, A. W. Götz, J. Hammond,
       V. Helms, E. D. Hermes, K. Hirao, S. Hirata, M. Jacquelin, L. Jensen,
   B. G. Johnson, H. Jónsson, R. A. Kendall, M. Klemm, R. Kobayashi, V. Konkov,
      S. Krishnamoorthy, M. Krishnan, Z. Lin, R. D. Lins, R. J. Littlefield,
      A. J. Logsdail, K. Lopata, W. Ma, A. V. Marenich, J. Martin del Campo,
   D. Mejia-Rodriguez, J. E. Moore, J. M. Mullin, T. Nakajima, D. R. Nascimento,
    J. A. Nichols, P. J. Nichols, J. Nieplocha, A. Otero-de-la-Roza, B. Palmer,
    A. Panyala, T. Pirojsirikul, B. Peng, R. Peverati, J. Pittner, L. Pollack,
   R. M. Richard, P. Sadayappan, G. C. Schatz, W. A. Shelton, D. W. Silverstein,
   D. M. A. Smith, T. A. Soares, D. Song, M. Swart, H. L. Taylor, G. S. Thomas,
            V. Tipparaju, D. G. Truhlar, K. Tsemekhman, T. Van Voorhis,
     Á. Vázquez-Mayagoitia, P. Verma, O. Villa, A. Vishnu, K. D. Vogiatzis,
        D. Wang, J. H. Weare, M. J. Williamson, T. L. Windus, K. Woliński,
        A. T. Wong, Q. Wu, C. Yang, Q. Yu, M. Zacharias, Z. Zhang, Y. Zhao,
                                and R. J. Harrison
                        "NWChem: Past, present, and future
                         J. Chem. Phys. 152, 184102 (2020)
                               doi:10.1063/5.0004997

                                      AUTHORS
                                      -------
     E. Apra, E. J. Bylaska, N. Govind, K. Kowalski, M. Valiev, W. A. de Jong,
      T. P. Straatsma, H. J. J. van Dam, D. Wang, T. L. Windus, N. P. Bauman,
       A. Panyala, J. Hammond, J. Autschbach, K. Bhaskaran-Nair, J. Brabec,
    K. Lopata, S. A. Fischer, S. Krishnamoorthy, M. Jacquelin, W. Ma, M. Klemm,
       O. Villa, Y. Chen, V. Anisimov, F. Aquino, S. Hirata, M. T. Hackler,
           Eric Hermes, L. Jensen, J. E. Moore, J. C. Becca, V. Konjkov,
            D. Mejia-Rodriguez, T. Risthaus, M. Malagoli, A. Marenich,
   A. Otero-de-la-Roza, J. Mullin, P. Nichols, R. Peverati, J. Pittner, Y. Zhao,
        P.-D. Fan, A. Fonari, M. J. Williamson, R. J. Harrison, J. R. Rehr,
      M. Dupuis, D. Silverstein, D. M. A. Smith, J. Nieplocha, V. Tipparaju,
      M. Krishnan, B. E. Van Kuiken, A. Vazquez-Mayagoitia, M. Swart, Q. Wu,
   T. Van Voorhis, A. A. Auer, M. Nooijen, L. D. Crosby, E. Brown, G. Cisneros,
     G. I. Fann, H. Fruchtl, J. Garza, K. Hirao, R. A. Kendall, J. A. Nichols,
       K. Tsemekhman, K. Wolinski, J. Anchell, D. E. Bernholdt, P. Borowski,
       T. Clark, D. Clerc, H. Dachsel, M. J. O. Deegan, K. Dyall, D. Elwood,
      E. Glendening, M. Gutowski, A. C. Hess, J. Jaffe, B. G. Johnson, J. Ju,
        R. Kobayashi, R. Kutteh, Z. Lin, R. Littlefield, X. Long, B. Meng,
      T. Nakajima, S. Niu, L. Pollack, M. Rosing, K. Glaesemann, G. Sandrone,
      M. Stave, H. Taylor, G. Thomas, J. H. van Lenthe, A. T. Wong, Z. Zhang.

 Total times  cpu:        0.8s     wall:        0.8s
