 argument  1 = nwchem/input_2_4.nw



============================== echo of input deck ==============================
echo
memory 1000 mb
geometry noautosym noautoz
O 0.87715956 1.70409266 0.47858616
H 1.70199937 1.19722607 0.29220265
H 1.16181787 2.60891668 0.65546661
O 2.81159896 -0.10395953 -0.18689424
H 3.46294039 -0.4517338 0.43482057
H 2.1584952 -0.82915775 -0.30211113
end
basis spherical
 * library cc-pvdz
end
task scf gradient
================================================================================


                                         
                                         


             Northwest Computational Chemistry Package (NWChem) 7.0.2
             --------------------------------------------------------


                    Environmental Molecular Sciences Laboratory
                       Pacific Northwest National Laboratory
                                Richland, WA 99352

                              Copyright (c) 1994-2020
                       Pacific Northwest National Laboratory
                            Battelle Memorial Institute

             NWChem is an open-source computational chemistry package
                        distributed under the terms of the
                      Educational Community License (ECL) 2.0
             A copy of the license is included with this distribution
                              in the LICENSE.TXT file

                                  ACKNOWLEDGMENT
                                  --------------

            This software and its documentation were developed at the
            EMSL at Pacific Northwest National Laboratory, a multiprogram
            national laboratory, operated for the U.S. Department of Energy
            by Battelle under Contract Number DE-AC05-76RL01830. Support
            for this work was provided by the Department of Energy Office
            of Biological and Environmental Research, Office of Basic
            Energy Sciences, and the Office of Advanced Scientific Computing.


           Job information
           ---------------

    hostname        = pop-os
    program         = nwchem
    date            = Tue Jul  6 14:07:17 2021

    compiled        = Wed_Jan_06_19:48:08_2021
    source          = /build/nwchem-ksKH2r/nwchem-7.0.2
    nwchem branch   = 7.0.2
    nwchem revision = N/A
    ga revision     = 5.7.1
    use scalapack   = T
    input           = nwchem/input_2_4.nw
    prefix          = input_2_4.
    data base       = ./input_2_4.db
    status          = startup
    nproc           =        1
    time left       =     -1s



           Memory information
           ------------------

    heap     =   32768000 doubles =    250.0 Mbytes
    stack    =   32767997 doubles =    250.0 Mbytes
    global   =   65536000 doubles =    500.0 Mbytes (distinct from heap & stack)
    total    =  131071997 doubles =   1000.0 Mbytes
    verify   = yes
    hardfail = no 


           Directory information
           ---------------------

  0 permanent = .
  0 scratch   = .




                                NWChem Input Module
                                -------------------



 Scaling coordinates for geometry "geometry" by  1.889725989
 (inverse scale =  0.529177249)



                             Geometry "geometry" -> ""
                             -------------------------

 Output coordinates in angstroms (scale by  1.889725989 to convert to a.u.)

  No.       Tag          Charge          X              Y              Z
 ---- ---------------- ---------- -------------- -------------- --------------
    1 O                    8.0000    -1.02260649     0.93777685     0.30789046
    2 H                    1.0000    -0.19776668     0.43091026     0.12150695
    3 H                    1.0000    -0.73794818     1.84260087     0.48477091
    4 O                    8.0000     0.91183291    -0.87027534    -0.35758994
    5 H                    1.0000     1.56317434    -1.21804961     0.26412487
    6 H                    1.0000     0.25872915    -1.59547356    -0.47280683

      Atomic Mass 
      ----------- 

      O                 15.994910
      H                  1.007825


 Effective nuclear repulsion energy (a.u.)      37.5751117309

            Nuclear Dipole moment (a.u.) 
            ----------------------------
        X                 Y               Z
 ---------------- ---------------- ----------------
     0.0000000000    -0.0000000000    -0.0000000000


            XYZ format geometry
            -------------------
     6
 geometry
 O                    -1.02260649     0.93777685     0.30789046
 H                    -0.19776668     0.43091026     0.12150695
 H                    -0.73794818     1.84260087     0.48477091
 O                     0.91183291    -0.87027534    -0.35758994
 H                     1.56317434    -1.21804961     0.26412487
 H                     0.25872915    -1.59547356    -0.47280683

 ==============================================================================
                                internuclear distances
 ------------------------------------------------------------------------------
       center one      |      center two      | atomic units |  angstroms
 ------------------------------------------------------------------------------
    2 H                |   1 O                |     1.86309  |     0.98591
    3 H                |   1 O                |     1.82339  |     0.96490
    5 H                |   4 O                |     1.82407  |     0.96526
    6 H                |   4 O                |     1.85707  |     0.98272
 ------------------------------------------------------------------------------
                         number of included internuclear distances:          4
 ==============================================================================



 ==============================================================================
                                 internuclear angles
 ------------------------------------------------------------------------------
        center 1       |       center 2       |       center 3       |  degrees
 ------------------------------------------------------------------------------
    2 H                |   1 O                |   3 H                |   105.66
    5 H                |   4 O                |   6 H                |   104.96
 ------------------------------------------------------------------------------
                            number of included internuclear angles:          2
 ==============================================================================





 Summary of "ao basis" -> "" (spherical)
 ------------------------------------------------------------------------------
       Tag                 Description            Shells   Functions and Types
 ---------------- ------------------------------  ------  ---------------------
 *                          cc-pvdz                   on all atoms 


                      Basis "ao basis" -> "ao basis" (spherical)
                      -----
  O (Oxygen)
  ----------
            Exponent  Coefficients 
       -------------- ---------------------------------------------------------
  1 S  1.17200000E+04  0.000710
  1 S  1.75900000E+03  0.005470
  1 S  4.00800000E+02  0.027837
  1 S  1.13700000E+02  0.104800
  1 S  3.70300000E+01  0.283062
  1 S  1.32700000E+01  0.448719
  1 S  5.02500000E+00  0.270952
  1 S  1.01300000E+00  0.015458

  2 S  1.17200000E+04 -0.000160
  2 S  1.75900000E+03 -0.001263
  2 S  4.00800000E+02 -0.006267
  2 S  1.13700000E+02 -0.025716
  2 S  3.70300000E+01 -0.070924
  2 S  1.32700000E+01 -0.165411
  2 S  5.02500000E+00 -0.116955
  2 S  1.01300000E+00  0.557368

  3 S  3.02300000E-01  1.000000

  4 P  1.77000000E+01  0.043018
  4 P  3.85400000E+00  0.228913
  4 P  1.04600000E+00  0.508728

  5 P  2.75300000E-01  1.000000

  6 D  1.18500000E+00  1.000000

  H (Hydrogen)
  ------------
            Exponent  Coefficients 
       -------------- ---------------------------------------------------------
  1 S  1.30100000E+01  0.019685
  1 S  1.96200000E+00  0.137977
  1 S  4.44600000E-01  0.478148

  2 S  1.22000000E-01  1.000000

  3 P  7.27000000E-01  1.000000



 Summary of "ao basis" -> "ao basis" (spherical)
 ------------------------------------------------------------------------------
       Tag                 Description            Shells   Functions and Types
 ---------------- ------------------------------  ------  ---------------------
 O                          cc-pvdz                  6       14   3s2p1d
 H                          cc-pvdz                  3        5   2s1p


                                 NWChem SCF Module
                                 -----------------



  ao basis        = "ao basis"
  functions       =    48
  atoms           =     6
  closed shells   =    10
  open shells     =     0
  charge          =   0.00
  wavefunction    = RHF 
  input vectors   = atomic
  output vectors  = ./input_2_4.movecs
  use symmetry    = F
  symmetry adapt  = F


 Summary of "ao basis" -> "ao basis" (spherical)
 ------------------------------------------------------------------------------
       Tag                 Description            Shells   Functions and Types
 ---------------- ------------------------------  ------  ---------------------
 O                          cc-pvdz                  6       14   3s2p1d
 H                          cc-pvdz                  3        5   2s1p



 Forming initial guess at       0.0s


      Superposition of Atomic Density Guess
      -------------------------------------

 Sum of atomic energies:        -151.52445821

      Non-variational initial energy
      ------------------------------

 Total energy =    -151.853463
 1-e energy   =    -282.033982
 2-e energy   =      92.605407
 HOMO         =      -0.462114
 LUMO         =       0.068347


 Starting SCF solution at       0.1s



 ----------------------------------------------
         Quadratically convergent ROHF

 Convergence threshold     :          1.000E-04
 Maximum no. of iterations :           30
 Final Fock-matrix accuracy:          1.000E-07
 ----------------------------------------------


 Integral file          = ./input_2_4.aoints.0
 Record size in doubles =  65536        No. of integs per rec  =  43688
 Max. records in memory =     23        Max. records in file   = 400656
 No. of bits per label  =      8        No. of bits per value  =     64


 #quartets = 4.230D+04 #integrals = 6.171D+05 #direct =  0.0% #cached =100.0%


              iter       energy          gnorm     gmax       time
             ----- ------------------- --------- --------- --------
                 1     -151.9941163949  1.11D+00  2.55D-01      0.3
                 2     -152.0528731768  2.43D-01  7.97D-02      0.4
                 3     -152.0575789775  2.04D-02  4.87D-03      0.4
                 4     -152.0576147572  3.65D-04  1.01D-04      0.4
                 5     -152.0576147665  7.12D-06  1.87D-06      0.5


       Final RHF  results 
       ------------------ 

         Total SCF energy =   -152.057614766545
      One-electron energy =   -284.755996806282
      Two-electron energy =     95.123270308880
 Nuclear repulsion energy =     37.575111730857

        Time for solution =      0.3s


             Final eigenvalues
             -----------------

              1      
    1  -20.5896
    2  -20.5098
    3   -1.3668
    4   -1.2897
    5   -0.7281
    6   -0.6710
    7   -0.5976
    8   -0.5405
    9   -0.5068
   10   -0.4547
   11    0.1617
   12    0.2329
   13    0.2378
   14    0.3927
   15    0.7396
   16    0.8029
   17    0.8208
   18    0.8624
   19    1.1197
   20    1.1789

                       ROHF Final Molecular Orbital Analysis
                       -------------------------------------

 Vector    2  Occ=2.000000D+00  E=-2.050983D+01
              MO Center= -1.0D+00,  9.4D-01,  3.1D-01, r^2= 1.5D-02
   Bfn.  Coefficient  Atom+Function         Bfn.  Coefficient  Atom+Function  
  ----- ------------  ---------------      ----- ------------  ---------------
     1      1.000964  1 O  s          

 Vector    3  Occ=2.000000D+00  E=-1.366813D+00
              MO Center=  8.9D-01, -9.9D-01, -2.8D-01, r^2= 5.8D-01
   Bfn.  Coefficient  Atom+Function         Bfn.  Coefficient  Atom+Function  
  ----- ------------  ---------------      ----- ------------  ---------------
    26      0.443319  4 O  s                 27      0.390172  4 O  s          
    39      0.186462  5 H  s                 44      0.177878  6 H  s          

 Vector    4  Occ=2.000000D+00  E=-1.289719D+00
              MO Center= -8.5D-01,  9.8D-01,  3.0D-01, r^2= 6.0D-01
   Bfn.  Coefficient  Atom+Function         Bfn.  Coefficient  Atom+Function  
  ----- ------------  ---------------      ----- ------------  ---------------
     2      0.440656  1 O  s                  3      0.390429  1 O  s          
    20      0.191084  3 H  s                 15      0.174426  2 H  s          

 Vector    5  Occ=2.000000D+00  E=-7.281397D-01
              MO Center=  8.7D-01, -1.0D+00, -2.5D-01, r^2= 9.5D-01
   Bfn.  Coefficient  Atom+Function         Bfn.  Coefficient  Atom+Function  
  ----- ------------  ---------------      ----- ------------  ---------------
    28      0.419885  4 O  px                39      0.329431  5 H  s          
    44     -0.300776  6 H  s                 30      0.232084  4 O  pz         
    31      0.199886  4 O  px         

 Vector    6  Occ=2.000000D+00  E=-6.710324D-01
              MO Center= -4.7D-01,  6.2D-01,  1.7D-01, r^2= 1.8D+00
   Bfn.  Coefficient  Atom+Function         Bfn.  Coefficient  Atom+Function  
  ----- ------------  ---------------      ----- ------------  ---------------
     5      0.381237  1 O  py                15     -0.292236  2 H  s          
    20      0.281409  3 H  s                 29     -0.234545  4 O  py         
     8      0.174014  1 O  py                 4     -0.165922  1 O  px         

 Vector    7  Occ=2.000000D+00  E=-5.976443D-01
              MO Center=  6.0D-01, -5.1D-01, -2.6D-01, r^2= 1.8D+00
   Bfn.  Coefficient  Atom+Function         Bfn.  Coefficient  Atom+Function  
  ----- ------------  ---------------      ----- ------------  ---------------
    29      0.433952  4 O  py                27      0.315619  4 O  s          
    32      0.284131  4 O  py                30     -0.247747  4 O  pz         
     5      0.206470  1 O  py                39     -0.190272  5 H  s          
    44     -0.179599  6 H  s                 33     -0.168979  4 O  pz         
    20      0.157245  3 H  s          

 Vector    8  Occ=2.000000D+00  E=-5.404682D-01
              MO Center= -2.0D-02, -6.3D-03, -4.7D-02, r^2= 2.6D+00
   Bfn.  Coefficient  Atom+Function         Bfn.  Coefficient  Atom+Function  
  ----- ------------  ---------------      ----- ------------  ---------------
    30      0.375455  4 O  pz                 4      0.304210  1 O  px         
    33      0.290087  4 O  pz                 3     -0.250109  1 O  s          
    28     -0.238466  4 O  px                 7      0.214057  1 O  px         
     5      0.199294  1 O  py                20      0.191147  3 H  s          
    31     -0.187278  4 O  px         

 Vector    9  Occ=2.000000D+00  E=-5.068275D-01
              MO Center= -1.6D-01,  8.9D-02,  1.8D-02, r^2= 2.5D+00
   Bfn.  Coefficient  Atom+Function         Bfn.  Coefficient  Atom+Function  
  ----- ------------  ---------------      ----- ------------  ---------------
     4      0.417996  1 O  px                 7      0.295161  1 O  px         
    30     -0.292081  4 O  pz                28      0.233488  4 O  px         
    33     -0.234495  4 O  pz                29     -0.223012  4 O  py         
     3     -0.186003  1 O  s                 15      0.186486  2 H  s          
    31      0.180801  4 O  px                32     -0.162667  4 O  py         

 Vector   10  Occ=2.000000D+00  E=-4.546858D-01
              MO Center= -1.0D+00,  9.4D-01,  3.1D-01, r^2= 6.2D-01
   Bfn.  Coefficient  Atom+Function         Bfn.  Coefficient  Atom+Function  
  ----- ------------  ---------------      ----- ------------  ---------------
     6      0.607979  1 O  pz                 9      0.488600  1 O  pz         

 Vector   11  Occ=0.000000D+00  E= 1.617248D-01
              MO Center=  8.6D-01, -1.3D+00,  3.3D-02, r^2= 3.8D+00
   Bfn.  Coefficient  Atom+Function         Bfn.  Coefficient  Atom+Function  
  ----- ------------  ---------------      ----- ------------  ---------------
    27      0.941000  4 O  s                 40     -0.840937  5 H  s          
    45     -0.719733  6 H  s                 21     -0.324700  3 H  s          
    32     -0.284651  4 O  py                 3      0.239746  1 O  s          
    29     -0.153209  4 O  py                33      0.150546  4 O  pz         

 Vector   12  Occ=0.000000D+00  E= 2.328537D-01
              MO Center= -1.8D-01,  1.3D+00,  5.0D-01, r^2= 5.2D+00
   Bfn.  Coefficient  Atom+Function         Bfn.  Coefficient  Atom+Function  
  ----- ------------  ---------------      ----- ------------  ---------------
    21      1.280683  3 H  s                  3     -0.782919  1 O  s          
    40     -0.756754  5 H  s                  8     -0.374982  1 O  py         
    45      0.328128  6 H  s                 27      0.236236  4 O  s          
    31      0.227865  4 O  px                 5     -0.171219  1 O  py         
    33      0.150286  4 O  pz         

 Vector   13  Occ=0.000000D+00  E= 2.378224D-01
              MO Center=  4.9D-01, -1.1D+00, -1.1D-01, r^2= 5.0D+00
   Bfn.  Coefficient  Atom+Function         Bfn.  Coefficient  Atom+Function  
  ----- ------------  ---------------      ----- ------------  ---------------
    45      1.421868  6 H  s                 40     -1.158174  5 H  s          
    31      0.501010  4 O  px                21     -0.496982  3 H  s          
     3      0.332805  1 O  s                 33      0.279923  4 O  pz         
    32      0.221221  4 O  py                28      0.210931  4 O  px         

 Vector   14  Occ=0.000000D+00  E= 3.927042D-01
              MO Center= -6.5D-02,  5.1D-01,  1.6D-01, r^2= 3.4D+00
   Bfn.  Coefficient  Atom+Function         Bfn.  Coefficient  Atom+Function  
  ----- ------------  ---------------      ----- ------------  ---------------
    16      2.162859  2 H  s                 21     -1.001319  3 H  s          
     3     -0.596094  1 O  s                  8      0.557796  1 O  py         
     7     -0.399263  1 O  px                45     -0.369019  6 H  s          
    32     -0.350347  4 O  py                40     -0.336267  5 H  s          
    31      0.227592  4 O  px                 5      0.205689  1 O  py         

 Vector   15  Occ=0.000000D+00  E= 7.395905D-01
              MO Center=  7.5D-01, -9.9D-01, -1.7D-01, r^2= 2.3D+00
   Bfn.  Coefficient  Atom+Function         Bfn.  Coefficient  Atom+Function  
  ----- ------------  ---------------      ----- ------------  ---------------
    44      0.965861  6 H  s                 39     -0.849774  5 H  s          
    45     -0.726354  6 H  s                 40      0.608265  5 H  s          
    31      0.398858  4 O  px                20     -0.285637  3 H  s          
    16      0.263199  2 H  s                 33      0.197180  4 O  pz         
    28      0.192571  4 O  px         

 Vector   16  Occ=0.000000D+00  E= 8.028909D-01
              MO Center= -4.5D-01,  6.1D-01,  1.9D-01, r^2= 1.8D+00
   Bfn.  Coefficient  Atom+Function         Bfn.  Coefficient  Atom+Function  
  ----- ------------  ---------------      ----- ------------  ---------------
    15      1.141944  2 H  s                 16     -1.146523  2 H  s          
    20     -0.549493  3 H  s                 21      0.538045  3 H  s          
     8      0.290839  1 O  py                27      0.238544  4 O  s          
    17      0.186705  2 H  px                 3      0.182945  1 O  s          
     5      0.179511  1 O  py                 4     -0.176207  1 O  px         

 Vector   17  Occ=0.000000D+00  E= 8.208443D-01
              MO Center=  9.8D-01, -1.3D+00, -3.7D-02, r^2= 2.0D+00
   Bfn.  Coefficient  Atom+Function         Bfn.  Coefficient  Atom+Function  
  ----- ------------  ---------------      ----- ------------  ---------------
    39      0.920832  5 H  s                 44      0.730060  6 H  s          
    40     -0.653105  5 H  s                 45     -0.552107  6 H  s          
    16      0.438230  2 H  s                 26     -0.253380  4 O  s          
    27      0.226055  4 O  s                 41      0.226065  5 H  px         
    29      0.216422  4 O  py                46     -0.216740  6 H  px         

 Vector   18  Occ=0.000000D+00  E= 8.624282D-01
              MO Center= -5.6D-01,  1.2D+00,  3.0D-01, r^2= 2.7D+00
   Bfn.  Coefficient  Atom+Function         Bfn.  Coefficient  Atom+Function  
  ----- ------------  ---------------      ----- ------------  ---------------
    20      1.054459  3 H  s                 21     -0.766108  3 H  s          
    45     -0.405434  6 H  s                 44      0.360605  6 H  s          
    23      0.289281  3 H  py                15      0.263011  2 H  s          
     3      0.257851  1 O  s                  4     -0.238935  1 O  px         
     2     -0.217101  1 O  s                  5     -0.198360  1 O  py         

 Vector   19  Occ=0.000000D+00  E= 1.119748D+00
              MO Center=  6.1D-01, -5.7D-01, -2.8D-01, r^2= 2.0D+00
   Bfn.  Coefficient  Atom+Function         Bfn.  Coefficient  Atom+Function  
  ----- ------------  ---------------      ----- ------------  ---------------
    33      0.874008  4 O  pz                32     -0.704935  4 O  py         
    30     -0.649435  4 O  pz                27      0.606114  4 O  s          
    39     -0.415223  5 H  s                 44     -0.345105  6 H  s          
    29      0.339060  4 O  py                 8     -0.326019  1 O  py         
     6     -0.240968  1 O  pz                28      0.230073  4 O  px         

 Vector   20  Occ=0.000000D+00  E= 1.178939D+00
              MO Center= -3.4D-02, -3.1D-02, -1.5D-02, r^2= 3.2D+00
   Bfn.  Coefficient  Atom+Function         Bfn.  Coefficient  Atom+Function  
  ----- ------------  ---------------      ----- ------------  ---------------
    31      1.005471  4 O  px                40     -0.670932  5 H  s          
    45      0.643494  6 H  s                  7      0.581383  1 O  px         
     8      0.559765  1 O  py                33      0.540146  4 O  pz         
     3      0.474028  1 O  s                 28     -0.467710  4 O  px         
     4     -0.427756  1 O  px                20     -0.326828  3 H  s          


 center of mass
 --------------
 x =  -0.04609751 y =   0.02809020 z =  -0.02068203

 moments of inertia (a.u.)
 ------------------
         135.510191723719         113.594111026073          36.970867459362
         113.594111026073         132.938293583248         -39.248748862200
          36.970867459362         -39.248748862200         239.133260096265

  Mulliken analysis of the total density
  --------------------------------------

    Atom       Charge   Shell Charges
 -----------   ------   -------------------------------------------------------
    1 O    8     8.39   2.00  0.83  0.84  2.82  1.88  0.01
    2 H    1     0.81   0.63  0.09  0.09
    3 H    1     0.85   0.69  0.08  0.08
    4 O    8     8.31   2.00  0.83  0.84  2.82  1.81  0.01
    5 H    1     0.83   0.68  0.07  0.08
    6 H    1     0.81   0.66  0.07  0.08

       Multipole analysis of the density wrt the origin
       ------------------------------------------------

     L   x y z        total         open         nuclear
     -   - - -        -----         ----         -------
     0   0 0 0     -0.000000      0.000000     20.000000

     1   1 0 0      0.940390      0.000000      0.000000
     1   0 1 0     -0.671359      0.000000     -0.000000
     1   0 0 1      0.283934      0.000000     -0.000000

     2   2 0 0    -10.692205      0.000000     64.677118
     2   1 1 0     -0.180386      0.000000    -63.500531
     2   1 0 1      1.867126      0.000000    -18.635692
     2   0 2 0     -4.039114      0.000000     73.937026
     2   0 1 1      0.275101      0.000000     22.060984
     2   0 0 2    -10.168593      0.000000      8.300624


 Parallel integral file used      15 records with       0 large values

                              NWChem Gradients Module
                              -----------------------



  wavefunction    =   RHF     



                         RHF ENERGY GRADIENTS

    atom               coordinates                        gradient
                 x          y          z           x          y          z
   1 O      -1.932446   1.772141   0.581829   -0.029685  -0.004425   0.000197
   2 H      -0.373725   0.814302   0.229615    0.030573  -0.022132  -0.006554
   3 H      -1.394520   3.482011   0.916084    0.004816   0.020566   0.004632
   4 O       1.723114  -1.644582  -0.675747    0.004989   0.037364  -0.006619
   5 H       2.953971  -2.301780   0.499124    0.013573  -0.005845   0.012561
   6 H       0.488927  -3.015008  -0.893475   -0.024266  -0.025528  -0.004216

                 ----------------------------------------
                 |  Time  |  1-e(secs)   |  2-e(secs)   |
                 ----------------------------------------
                 |  CPU   |       0.00   |       0.33   |
                 ----------------------------------------
                 |  WALL  |       0.00   |       0.33   |
                 ----------------------------------------

 Task  times  cpu:        0.8s     wall:        0.8s


                                NWChem Input Module
                                -------------------


 Summary of allocated global arrays
-----------------------------------
  No active global arrays



                         GA Statistics for process    0
                         ------------------------------

       create   destroy   get      put      acc     scatter   gather  read&inc
calls:  249      249     6359     2342     2356        0        0      115     
number of processes/call 0.00e+00 0.00e+00 0.00e+00 0.00e+00 0.00e+00
bytes total:             6.37e+06 3.82e+06 9.06e+05 0.00e+00 0.00e+00 9.20e+02
bytes remote:            0.00e+00 0.00e+00 0.00e+00 0.00e+00 0.00e+00 0.00e+00
Max memory consumed for GA by this process: 239616 bytes

MA_summarize_allocated_blocks: starting scan ...
MA_summarize_allocated_blocks: scan completed: 0 heap blocks, 0 stack blocks
MA usage statistics:

	allocation statistics:
					      heap	     stack
					      ----	     -----
	current number of blocks	         0	         0
	maximum number of blocks	        18	        28
	current total bytes		         0	         0
	maximum total bytes		  12084272	  22510280
	maximum total K-bytes		     12085	     22511
	maximum total M-bytes		        13	        23


                                     CITATION
                                     --------
                Please cite the following reference when publishing
                           results obtained with NWChem:

          E. Aprà, E. J. Bylaska, W. A. de Jong, N. Govind, K. Kowalski,
       T. P. Straatsma, M. Valiev, H. J. J. van Dam, Y. Alexeev, J. Anchell,
       V. Anisimov, F. W. Aquino, R. Atta-Fynn, J. Autschbach, N. P. Bauman,
     J. C. Becca, D. E. Bernholdt, K. Bhaskaran-Nair, S. Bogatko, P. Borowski,
        J. Boschen, J. Brabec, A. Bruner, E. Cauët, Y. Chen, G. N. Chuev,
      C. J. Cramer, J. Daily, M. J. O. Deegan, T. H. Dunning Jr., M. Dupuis,
   K. G. Dyall, G. I. Fann, S. A. Fischer, A. Fonari, H. Früchtl, L. Gagliardi,
      J. Garza, N. Gawande, S. Ghosh, K. Glaesemann, A. W. Götz, J. Hammond,
       V. Helms, E. D. Hermes, K. Hirao, S. Hirata, M. Jacquelin, L. Jensen,
   B. G. Johnson, H. Jónsson, R. A. Kendall, M. Klemm, R. Kobayashi, V. Konkov,
      S. Krishnamoorthy, M. Krishnan, Z. Lin, R. D. Lins, R. J. Littlefield,
      A. J. Logsdail, K. Lopata, W. Ma, A. V. Marenich, J. Martin del Campo,
   D. Mejia-Rodriguez, J. E. Moore, J. M. Mullin, T. Nakajima, D. R. Nascimento,
    J. A. Nichols, P. J. Nichols, J. Nieplocha, A. Otero-de-la-Roza, B. Palmer,
    A. Panyala, T. Pirojsirikul, B. Peng, R. Peverati, J. Pittner, L. Pollack,
   R. M. Richard, P. Sadayappan, G. C. Schatz, W. A. Shelton, D. W. Silverstein,
   D. M. A. Smith, T. A. Soares, D. Song, M. Swart, H. L. Taylor, G. S. Thomas,
            V. Tipparaju, D. G. Truhlar, K. Tsemekhman, T. Van Voorhis,
     Á. Vázquez-Mayagoitia, P. Verma, O. Villa, A. Vishnu, K. D. Vogiatzis,
        D. Wang, J. H. Weare, M. J. Williamson, T. L. Windus, K. Woliński,
        A. T. Wong, Q. Wu, C. Yang, Q. Yu, M. Zacharias, Z. Zhang, Y. Zhao,
                                and R. J. Harrison
                        "NWChem: Past, present, and future
                         J. Chem. Phys. 152, 184102 (2020)
                               doi:10.1063/5.0004997

                                      AUTHORS
                                      -------
     E. Apra, E. J. Bylaska, N. Govind, K. Kowalski, M. Valiev, W. A. de Jong,
      T. P. Straatsma, H. J. J. van Dam, D. Wang, T. L. Windus, N. P. Bauman,
       A. Panyala, J. Hammond, J. Autschbach, K. Bhaskaran-Nair, J. Brabec,
    K. Lopata, S. A. Fischer, S. Krishnamoorthy, M. Jacquelin, W. Ma, M. Klemm,
       O. Villa, Y. Chen, V. Anisimov, F. Aquino, S. Hirata, M. T. Hackler,
           Eric Hermes, L. Jensen, J. E. Moore, J. C. Becca, V. Konjkov,
            D. Mejia-Rodriguez, T. Risthaus, M. Malagoli, A. Marenich,
   A. Otero-de-la-Roza, J. Mullin, P. Nichols, R. Peverati, J. Pittner, Y. Zhao,
        P.-D. Fan, A. Fonari, M. J. Williamson, R. J. Harrison, J. R. Rehr,
      M. Dupuis, D. Silverstein, D. M. A. Smith, J. Nieplocha, V. Tipparaju,
      M. Krishnan, B. E. Van Kuiken, A. Vazquez-Mayagoitia, M. Swart, Q. Wu,
   T. Van Voorhis, A. A. Auer, M. Nooijen, L. D. Crosby, E. Brown, G. Cisneros,
     G. I. Fann, H. Fruchtl, J. Garza, K. Hirao, R. A. Kendall, J. A. Nichols,
       K. Tsemekhman, K. Wolinski, J. Anchell, D. E. Bernholdt, P. Borowski,
       T. Clark, D. Clerc, H. Dachsel, M. J. O. Deegan, K. Dyall, D. Elwood,
      E. Glendening, M. Gutowski, A. C. Hess, J. Jaffe, B. G. Johnson, J. Ju,
        R. Kobayashi, R. Kutteh, Z. Lin, R. Littlefield, X. Long, B. Meng,
      T. Nakajima, S. Niu, L. Pollack, M. Rosing, K. Glaesemann, G. Sandrone,
      M. Stave, H. Taylor, G. Thomas, J. H. van Lenthe, A. T. Wong, Z. Zhang.

 Total times  cpu:        0.8s     wall:        0.9s
