 argument  1 = nwchem/input_2_7.nw



============================== echo of input deck ==============================
echo
memory 1000 mb
geometry noautosym noautoz
O -0.82054445 0.61636011 -1.6312343
H -0.26682713 1.17302621 -1.05309865
H -0.36885969 -0.24447946 -1.58195952
O 0.57630762 -1.69154092 -0.42866929
H 0.43417462 -2.64420081 -0.48595869
H 0.08911917 -1.3894609 0.38589939
end
basis spherical
 * library cc-pvdz
end
task scf gradient
================================================================================


                                         
                                         


             Northwest Computational Chemistry Package (NWChem) 7.0.2
             --------------------------------------------------------


                    Environmental Molecular Sciences Laboratory
                       Pacific Northwest National Laboratory
                                Richland, WA 99352

                              Copyright (c) 1994-2020
                       Pacific Northwest National Laboratory
                            Battelle Memorial Institute

             NWChem is an open-source computational chemistry package
                        distributed under the terms of the
                      Educational Community License (ECL) 2.0
             A copy of the license is included with this distribution
                              in the LICENSE.TXT file

                                  ACKNOWLEDGMENT
                                  --------------

            This software and its documentation were developed at the
            EMSL at Pacific Northwest National Laboratory, a multiprogram
            national laboratory, operated for the U.S. Department of Energy
            by Battelle under Contract Number DE-AC05-76RL01830. Support
            for this work was provided by the Department of Energy Office
            of Biological and Environmental Research, Office of Basic
            Energy Sciences, and the Office of Advanced Scientific Computing.


           Job information
           ---------------

    hostname        = pop-os
    program         = nwchem
    date            = Tue Jul  6 14:07:15 2021

    compiled        = Wed_Jan_06_19:48:08_2021
    source          = /build/nwchem-ksKH2r/nwchem-7.0.2
    nwchem branch   = 7.0.2
    nwchem revision = N/A
    ga revision     = 5.7.1
    use scalapack   = T
    input           = nwchem/input_2_7.nw
    prefix          = input_2_7.
    data base       = ./input_2_7.db
    status          = startup
    nproc           =        1
    time left       =     -1s



           Memory information
           ------------------

    heap     =   32767998 doubles =    250.0 Mbytes
    stack    =   32767995 doubles =    250.0 Mbytes
    global   =   65536000 doubles =    500.0 Mbytes (distinct from heap & stack)
    total    =  131071993 doubles =   1000.0 Mbytes
    verify   = yes
    hardfail = no 


           Directory information
           ---------------------

  0 permanent = .
  0 scratch   = .




                                NWChem Input Module
                                -------------------



 Scaling coordinates for geometry "geometry" by  1.889725989
 (inverse scale =  0.529177249)



                             Geometry "geometry" -> ""
                             -------------------------

 Output coordinates in angstroms (scale by  1.889725989 to convert to a.u.)

  No.       Tag          Charge          X              Y              Z
 ---- ---------------- ---------- -------------- -------------- --------------
    1 O                    8.0000    -0.71723007     1.20168818    -0.67051699
    2 H                    1.0000    -0.16351275     1.75835428    -0.09238134
    3 H                    1.0000    -0.26554531     0.34084861    -0.62124221
    4 O                    8.0000     0.67962200    -1.10621285     0.53204802
    5 H                    1.0000     0.53748900    -2.05887274     0.47475862
    6 H                    1.0000     0.19243355    -0.80413283     1.34661670

      Atomic Mass 
      ----------- 

      O                 15.994910
      H                  1.007825


 Effective nuclear repulsion energy (a.u.)      36.2092032299

            Nuclear Dipole moment (a.u.) 
            ----------------------------
        X                 Y               Z
 ---------------- ---------------- ----------------
    -0.0000000000    -0.0000000000     0.0000000000


            XYZ format geometry
            -------------------
     6
 geometry
 O                    -0.71723007     1.20168818    -0.67051699
 H                    -0.16351275     1.75835428    -0.09238134
 H                    -0.26554531     0.34084861    -0.62124221
 O                     0.67962200    -1.10621285     0.53204802
 H                     0.53748900    -2.05887274     0.47475862
 H                     0.19243355    -0.80413283     1.34661670

 ==============================================================================
                                internuclear distances
 ------------------------------------------------------------------------------
       center one      |      center two      | atomic units |  angstroms
 ------------------------------------------------------------------------------
    2 H                |   1 O                |     1.84258  |     0.97505
    3 H                |   1 O                |     1.83944  |     0.97339
    5 H                |   4 O                |     1.82341  |     0.96491
    6 H                |   4 O                |     1.88227  |     0.99606
 ------------------------------------------------------------------------------
                         number of included internuclear distances:          4
 ==============================================================================



 ==============================================================================
                                 internuclear angles
 ------------------------------------------------------------------------------
        center 1       |       center 2       |       center 3       |  degrees
 ------------------------------------------------------------------------------
    2 H                |   1 O                |   3 H                |   102.20
    5 H                |   4 O                |   6 H                |   106.02
 ------------------------------------------------------------------------------
                            number of included internuclear angles:          2
 ==============================================================================





 Summary of "ao basis" -> "" (spherical)
 ------------------------------------------------------------------------------
       Tag                 Description            Shells   Functions and Types
 ---------------- ------------------------------  ------  ---------------------
 *                          cc-pvdz                   on all atoms 


                      Basis "ao basis" -> "ao basis" (spherical)
                      -----
  O (Oxygen)
  ----------
            Exponent  Coefficients 
       -------------- ---------------------------------------------------------
  1 S  1.17200000E+04  0.000710
  1 S  1.75900000E+03  0.005470
  1 S  4.00800000E+02  0.027837
  1 S  1.13700000E+02  0.104800
  1 S  3.70300000E+01  0.283062
  1 S  1.32700000E+01  0.448719
  1 S  5.02500000E+00  0.270952
  1 S  1.01300000E+00  0.015458

  2 S  1.17200000E+04 -0.000160
  2 S  1.75900000E+03 -0.001263
  2 S  4.00800000E+02 -0.006267
  2 S  1.13700000E+02 -0.025716
  2 S  3.70300000E+01 -0.070924
  2 S  1.32700000E+01 -0.165411
  2 S  5.02500000E+00 -0.116955
  2 S  1.01300000E+00  0.557368

  3 S  3.02300000E-01  1.000000

  4 P  1.77000000E+01  0.043018
  4 P  3.85400000E+00  0.228913
  4 P  1.04600000E+00  0.508728

  5 P  2.75300000E-01  1.000000

  6 D  1.18500000E+00  1.000000

  H (Hydrogen)
  ------------
            Exponent  Coefficients 
       -------------- ---------------------------------------------------------
  1 S  1.30100000E+01  0.019685
  1 S  1.96200000E+00  0.137977
  1 S  4.44600000E-01  0.478148

  2 S  1.22000000E-01  1.000000

  3 P  7.27000000E-01  1.000000



 Summary of "ao basis" -> "ao basis" (spherical)
 ------------------------------------------------------------------------------
       Tag                 Description            Shells   Functions and Types
 ---------------- ------------------------------  ------  ---------------------
 O                          cc-pvdz                  6       14   3s2p1d
 H                          cc-pvdz                  3        5   2s1p


                                 NWChem SCF Module
                                 -----------------



  ao basis        = "ao basis"
  functions       =    48
  atoms           =     6
  closed shells   =    10
  open shells     =     0
  charge          =   0.00
  wavefunction    = RHF 
  input vectors   = atomic
  output vectors  = ./input_2_7.movecs
  use symmetry    = F
  symmetry adapt  = F


 Summary of "ao basis" -> "ao basis" (spherical)
 ------------------------------------------------------------------------------
       Tag                 Description            Shells   Functions and Types
 ---------------- ------------------------------  ------  ---------------------
 O                          cc-pvdz                  6       14   3s2p1d
 H                          cc-pvdz                  3        5   2s1p



 Forming initial guess at       0.0s


      Superposition of Atomic Density Guess
      -------------------------------------

 Sum of atomic energies:        -151.52445821

      Non-variational initial energy
      ------------------------------

 Total energy =    -151.805766
 1-e energy   =    -279.329041
 2-e energy   =      91.314071
 HOMO         =      -0.459221
 LUMO         =       0.061649


 Starting SCF solution at       0.1s



 ----------------------------------------------
         Quadratically convergent ROHF

 Convergence threshold     :          1.000E-04
 Maximum no. of iterations :           30
 Final Fock-matrix accuracy:          1.000E-07
 ----------------------------------------------


 Integral file          = ./input_2_7.aoints.0
 Record size in doubles =  65536        No. of integs per rec  =  43688
 Max. records in memory =     23        Max. records in file   = 400650
 No. of bits per label  =      8        No. of bits per value  =     64


 #quartets = 4.106D+04 #integrals = 5.944D+05 #direct =  0.0% #cached =100.0%


              iter       energy          gnorm     gmax       time
             ----- ------------------- --------- --------- --------
                 1     -151.9928752245  1.12D+00  3.30D-01      0.3
                 2     -152.0529292992  2.44D-01  6.79D-02      0.3
                 3     -152.0575926575  2.11D-02  4.47D-03      0.4
                 4     -152.0576300444  3.72D-04  9.35D-05      0.4
                 5     -152.0576300544  7.50D-06  1.87D-06      0.5


       Final RHF  results 
       ------------------ 

         Total SCF energy =   -152.057630054421
      One-electron energy =   -281.960862065403
      Two-electron energy =     93.694028781074
 Nuclear repulsion energy =     36.209203229908

        Time for solution =      0.3s


             Final eigenvalues
             -----------------

              1      
    1  -20.5841
    2  -20.5291
    3   -1.3549
    4   -1.3066
    5   -0.7201
    6   -0.6661
    7   -0.5923
    8   -0.5491
    9   -0.5145
   10   -0.4697
   11    0.1577
   12    0.2217
   13    0.2466
   14    0.3329
   15    0.7365
   16    0.8007
   17    0.8154
   18    0.8788
   19    1.1278
   20    1.1649

                       ROHF Final Molecular Orbital Analysis
                       -------------------------------------

 Vector    2  Occ=2.000000D+00  E=-2.052913D+01
              MO Center= -7.2D-01,  1.2D+00, -6.7D-01, r^2= 1.5D-02
   Bfn.  Coefficient  Atom+Function         Bfn.  Coefficient  Atom+Function  
  ----- ------------  ---------------      ----- ------------  ---------------
     1      1.000911  1 O  s          

 Vector    3  Occ=2.000000D+00  E=-1.354856D+00
              MO Center=  5.8D-01, -1.2D+00,  6.1D-01, r^2= 5.8D-01
   Bfn.  Coefficient  Atom+Function         Bfn.  Coefficient  Atom+Function  
  ----- ------------  ---------------      ----- ------------  ---------------
    26      0.444148  4 O  s                 27      0.393578  4 O  s          
    39      0.188588  5 H  s                 44      0.173143  6 H  s          

 Vector    4  Occ=2.000000D+00  E=-1.306579D+00
              MO Center= -5.7D-01,  1.1D+00, -5.7D-01, r^2= 5.8D-01
   Bfn.  Coefficient  Atom+Function         Bfn.  Coefficient  Atom+Function  
  ----- ------------  ---------------      ----- ------------  ---------------
     2      0.441660  1 O  s                  3      0.387828  1 O  s          
    15      0.187433  2 H  s                 20      0.183673  3 H  s          

 Vector    5  Occ=2.000000D+00  E=-7.201002D-01
              MO Center=  5.5D-01, -1.2D+00,  6.6D-01, r^2= 8.8D-01
   Bfn.  Coefficient  Atom+Function         Bfn.  Coefficient  Atom+Function  
  ----- ------------  ---------------      ----- ------------  ---------------
    29      0.409464  4 O  py                39     -0.330013  5 H  s          
    44      0.306244  6 H  s                 30      0.244963  4 O  pz         
    32      0.194453  4 O  py         

 Vector    6  Occ=2.000000D+00  E=-6.660643D-01
              MO Center= -4.8D-01,  1.0D+00, -5.0D-01, r^2= 1.1D+00
   Bfn.  Coefficient  Atom+Function         Bfn.  Coefficient  Atom+Function  
  ----- ------------  ---------------      ----- ------------  ---------------
     5      0.449234  1 O  py                20     -0.313634  3 H  s          
    15      0.311085  2 H  s                  8      0.213416  1 O  py         
     6      0.158321  1 O  pz         

 Vector    7  Occ=2.000000D+00  E=-5.922707D-01
              MO Center=  5.7D-01, -8.7D-01,  4.2D-01, r^2= 1.4D+00
   Bfn.  Coefficient  Atom+Function         Bfn.  Coefficient  Atom+Function  
  ----- ------------  ---------------      ----- ------------  ---------------
    30      0.348763  4 O  pz                27     -0.315967  4 O  s          
    29     -0.282699  4 O  py                28     -0.265517  4 O  px         
    33      0.232694  4 O  pz                44      0.208222  6 H  s          
    32     -0.193754  4 O  py                39      0.179474  5 H  s          
    31     -0.178502  4 O  px         

 Vector    8  Occ=2.000000D+00  E=-5.490871D-01
              MO Center= -4.1D-01,  6.8D-01, -4.0D-01, r^2= 2.3D+00
   Bfn.  Coefficient  Atom+Function         Bfn.  Coefficient  Atom+Function  
  ----- ------------  ---------------      ----- ------------  ---------------
     4      0.383083  1 O  px                 3     -0.294231  1 O  s          
    28     -0.276362  4 O  px                 7      0.258207  1 O  px         
     6      0.255913  1 O  pz                31     -0.211727  4 O  px         
    15      0.196760  2 H  s                  9      0.172071  1 O  pz         
    20      0.169014  3 H  s          

 Vector    9  Occ=2.000000D+00  E=-5.145197D-01
              MO Center=  3.8D-01, -6.7D-01,  3.1D-01, r^2= 2.0D+00
   Bfn.  Coefficient  Atom+Function         Bfn.  Coefficient  Atom+Function  
  ----- ------------  ---------------      ----- ------------  ---------------
    28      0.453395  4 O  px                31      0.357061  4 O  px         
    30      0.328303  4 O  pz                33      0.250362  4 O  pz         
     4      0.224067  1 O  px                 7      0.159030  1 O  px         

 Vector   10  Occ=2.000000D+00  E=-4.697325D-01
              MO Center= -6.8D-01,  1.2D+00, -6.5D-01, r^2= 6.9D-01
   Bfn.  Coefficient  Atom+Function         Bfn.  Coefficient  Atom+Function  
  ----- ------------  ---------------      ----- ------------  ---------------
     6      0.495742  1 O  pz                 9      0.392627  1 O  pz         
     4     -0.344063  1 O  px                 7     -0.271886  1 O  px         
     5     -0.166991  1 O  py         

 Vector   11  Occ=0.000000D+00  E= 1.576539D-01
              MO Center=  2.3D-01, -9.8D-01,  8.6D-01, r^2= 4.1D+00
   Bfn.  Coefficient  Atom+Function         Bfn.  Coefficient  Atom+Function  
  ----- ------------  ---------------      ----- ------------  ---------------
    27      0.896732  4 O  s                 45     -0.755443  6 H  s          
    40     -0.703307  5 H  s                 16     -0.410331  2 H  s          
     3      0.311057  1 O  s                 33      0.195389  4 O  pz         
    31     -0.175260  4 O  px         

 Vector   12  Occ=0.000000D+00  E= 2.216587D-01
              MO Center=  2.1D-01, -6.3D-02,  3.0D-01, r^2= 6.8D+00
   Bfn.  Coefficient  Atom+Function         Bfn.  Coefficient  Atom+Function  
  ----- ------------  ---------------      ----- ------------  ---------------
    40     -1.120135  5 H  s                 16      1.041995  2 H  s          
     3     -0.572259  1 O  s                 45      0.549644  6 H  s          
    32     -0.383343  4 O  py                27      0.330031  4 O  s          
     9     -0.209104  1 O  pz                 8     -0.205451  1 O  py         
    29     -0.195412  4 O  py                 7     -0.184457  1 O  px         

 Vector   13  Occ=0.000000D+00  E= 2.465526D-01
              MO Center=  1.0D-01, -1.1D-01,  8.0D-01, r^2= 5.4D+00
   Bfn.  Coefficient  Atom+Function         Bfn.  Coefficient  Atom+Function  
  ----- ------------  ---------------      ----- ------------  ---------------
    45      1.334030  6 H  s                 40     -0.869483  5 H  s          
    16     -0.794880  2 H  s                  3      0.626512  1 O  s          
    33     -0.389374  4 O  pz                32     -0.341072  4 O  py         
    21     -0.289795  3 H  s                 30     -0.199072  4 O  pz         
    27     -0.197029  4 O  s                  7      0.186960  1 O  px         

 Vector   14  Occ=0.000000D+00  E= 3.328739D-01
              MO Center= -1.8D-01,  1.5D-01, -6.5D-01, r^2= 3.3D+00
   Bfn.  Coefficient  Atom+Function         Bfn.  Coefficient  Atom+Function  
  ----- ------------  ---------------      ----- ------------  ---------------
    21      1.852436  3 H  s                 16     -0.952904  2 H  s          
     8      0.614753  1 O  py                 3     -0.522231  1 O  s          
    40     -0.411552  5 H  s                 32     -0.289463  4 O  py         
     5      0.258922  1 O  py         

 Vector   15  Occ=0.000000D+00  E= 7.364647D-01
              MO Center=  1.8D-01, -4.1D-01,  3.7D-01, r^2= 3.4D+00
   Bfn.  Coefficient  Atom+Function         Bfn.  Coefficient  Atom+Function  
  ----- ------------  ---------------      ----- ------------  ---------------
    44      0.841974  6 H  s                 39     -0.721570  5 H  s          
    45     -0.638089  6 H  s                 15      0.584170  2 H  s          
    21      0.518214  3 H  s                 40      0.467677  5 H  s          
    20     -0.419922  3 H  s                 32     -0.396052  4 O  py         
    16     -0.327835  2 H  s                  5     -0.186808  1 O  py         

 Vector   16  Occ=0.000000D+00  E= 8.006561D-01
              MO Center= -1.5D-01,  2.7D-01,  2.2D-01, r^2= 3.4D+00
   Bfn.  Coefficient  Atom+Function         Bfn.  Coefficient  Atom+Function  
  ----- ------------  ---------------      ----- ------------  ---------------
    20      0.796035  3 H  s                 44      0.796655  6 H  s          
    15     -0.672530  2 H  s                 45     -0.671471  6 H  s          
    16      0.601604  2 H  s                 21     -0.587818  3 H  s          
     8      0.333012  1 O  py                40      0.234128  5 H  s          
    33     -0.181030  4 O  pz                27      0.169725  4 O  s          

 Vector   17  Occ=0.000000D+00  E= 8.154331D-01
              MO Center=  3.9D-01, -1.5D+00,  6.2D-01, r^2= 2.4D+00
   Bfn.  Coefficient  Atom+Function         Bfn.  Coefficient  Atom+Function  
  ----- ------------  ---------------      ----- ------------  ---------------
    39      1.012808  5 H  s                 40     -0.740658  5 H  s          
    44      0.500573  6 H  s                 21      0.399045  3 H  s          
    45     -0.359111  6 H  s                 20     -0.278284  3 H  s          
    42     -0.277966  5 H  py                15      0.267223  2 H  s          
    27      0.251978  4 O  s                 16     -0.249253  2 H  s          

 Vector   18  Occ=0.000000D+00  E= 8.787842D-01
              MO Center= -2.1D-01,  1.1D+00, -3.8D-01, r^2= 1.8D+00
   Bfn.  Coefficient  Atom+Function         Bfn.  Coefficient  Atom+Function  
  ----- ------------  ---------------      ----- ------------  ---------------
    15      0.777712  2 H  s                 20      0.736609  3 H  s          
    21     -0.730117  3 H  s                 16     -0.560416  2 H  s          
     3      0.447814  1 O  s                  4     -0.288560  1 O  px         
    23     -0.289280  3 H  py                18      0.255585  2 H  py         
     6     -0.237765  1 O  pz                 2     -0.234524  1 O  s          

 Vector   19  Occ=0.000000D+00  E= 1.127803D+00
              MO Center=  1.2D-01, -1.7D-01,  9.3D-02, r^2= 3.3D+00
   Bfn.  Coefficient  Atom+Function         Bfn.  Coefficient  Atom+Function  
  ----- ------------  ---------------      ----- ------------  ---------------
    32      0.850530  4 O  py                 7      0.581408  1 O  px         
    31      0.522105  4 O  px                27     -0.512253  4 O  s          
     3      0.457690  1 O  s                 29     -0.448214  4 O  py         
    39      0.415655  5 H  s                 28     -0.383896  4 O  px         
     4     -0.372800  1 O  px                20     -0.371572  3 H  s          

 Vector   20  Occ=0.000000D+00  E= 1.164929D+00
              MO Center=  2.5D-01, -3.7D-01,  1.5D-01, r^2= 3.1D+00
   Bfn.  Coefficient  Atom+Function         Bfn.  Coefficient  Atom+Function  
  ----- ------------  ---------------      ----- ------------  ---------------
    31      0.905926  4 O  px                28     -0.724092  4 O  px         
    20      0.482706  3 H  s                  9     -0.433002  1 O  pz         
    45      0.403572  6 H  s                  7     -0.374318  1 O  px         
     3     -0.358873  1 O  s                  8      0.352632  1 O  py         
     6      0.346880  1 O  pz                15      0.295926  2 H  s          


 center of mass
 --------------
 x =  -0.01565029 y =   0.03973127 z =  -0.05762272

 moments of inertia (a.u.)
 ------------------
         231.938281039523          98.050090941814         -50.589617278080
          98.050090941814         107.766452961867          88.320797668229
         -50.589617278080          88.320797668229         238.731055208687

  Mulliken analysis of the total density
  --------------------------------------

    Atom       Charge   Shell Charges
 -----------   ------   -------------------------------------------------------
    1 O    8     8.35   2.00  0.83  0.84  2.81  1.85  0.01
    2 H    1     0.85   0.68  0.08  0.08
    3 H    1     0.83   0.66  0.08  0.09
    4 O    8     8.33   2.00  0.83  0.85  2.81  1.83  0.01
    5 H    1     0.82   0.68  0.06  0.08
    6 H    1     0.82   0.65  0.08  0.08

       Multipole analysis of the density wrt the origin
       ------------------------------------------------

     L   x y z        total         open         nuclear
     -   - - -        -----         ----         -------
     0   0 0 0     -0.000000      0.000000     20.000000

     1   1 0 0      0.311716      0.000000     -0.000000
     1   0 1 0     -0.813903      0.000000     -0.000000
     1   0 0 1      0.995488      0.000000      0.000000

     2   2 0 0    -12.207898      0.000000     29.402773
     2   1 1 0      2.028129      0.000000    -51.955185
     2   1 0 1     -1.322762      0.000000     26.548853
     2   0 2 0     -5.813037      0.000000    105.116653
     2   0 1 1      0.791447      0.000000    -48.527195
     2   0 0 2     -8.744463      0.000000     29.620527


 Parallel integral file used      14 records with       0 large values

                              NWChem Gradients Module
                              -----------------------



  wavefunction    =   RHF     



                         RHF ENERGY GRADIENTS

    atom               coordinates                        gradient
                 x          y          z           x          y          z
   1 O      -1.355368   2.270861  -1.267093   -0.029044   0.005528  -0.020512
   2 H      -0.308994   3.322808  -0.174575    0.017249   0.015469   0.019028
   3 H      -0.501808   0.644110  -1.173978    0.011501  -0.021556   0.001838
   4 O       1.284299  -2.090439   1.005425    0.023917   0.001302  -0.035303
   5 H       1.015707  -3.890705   0.897164   -0.001010  -0.019750  -0.003811
   6 H       0.363647  -1.519591   2.544737   -0.022612   0.019007   0.038761

                 ----------------------------------------
                 |  Time  |  1-e(secs)   |  2-e(secs)   |
                 ----------------------------------------
                 |  CPU   |       0.00   |       0.37   |
                 ----------------------------------------
                 |  WALL  |       0.00   |       0.37   |
                 ----------------------------------------

 Task  times  cpu:        0.8s     wall:        0.9s


                                NWChem Input Module
                                -------------------


 Summary of allocated global arrays
-----------------------------------
  No active global arrays



                         GA Statistics for process    0
                         ------------------------------

       create   destroy   get      put      acc     scatter   gather  read&inc
calls:  249      249     6355     2323     2356        0        0      115     
number of processes/call 0.00e+00 0.00e+00 0.00e+00 0.00e+00 0.00e+00
bytes total:             6.29e+06 3.74e+06 9.06e+05 0.00e+00 0.00e+00 9.20e+02
bytes remote:            0.00e+00 0.00e+00 0.00e+00 0.00e+00 0.00e+00 0.00e+00
Max memory consumed for GA by this process: 239616 bytes

MA_summarize_allocated_blocks: starting scan ...
MA_summarize_allocated_blocks: scan completed: 0 heap blocks, 0 stack blocks
MA usage statistics:

	allocation statistics:
					      heap	     stack
					      ----	     -----
	current number of blocks	         0	         0
	maximum number of blocks	        18	        28
	current total bytes		         0	         0
	maximum total bytes		  12084288	  22510264
	maximum total K-bytes		     12085	     22511
	maximum total M-bytes		        13	        23


                                     CITATION
                                     --------
                Please cite the following reference when publishing
                           results obtained with NWChem:

          E. Aprà, E. J. Bylaska, W. A. de Jong, N. Govind, K. Kowalski,
       T. P. Straatsma, M. Valiev, H. J. J. van Dam, Y. Alexeev, J. Anchell,
       V. Anisimov, F. W. Aquino, R. Atta-Fynn, J. Autschbach, N. P. Bauman,
     J. C. Becca, D. E. Bernholdt, K. Bhaskaran-Nair, S. Bogatko, P. Borowski,
        J. Boschen, J. Brabec, A. Bruner, E. Cauët, Y. Chen, G. N. Chuev,
      C. J. Cramer, J. Daily, M. J. O. Deegan, T. H. Dunning Jr., M. Dupuis,
   K. G. Dyall, G. I. Fann, S. A. Fischer, A. Fonari, H. Früchtl, L. Gagliardi,
      J. Garza, N. Gawande, S. Ghosh, K. Glaesemann, A. W. Götz, J. Hammond,
       V. Helms, E. D. Hermes, K. Hirao, S. Hirata, M. Jacquelin, L. Jensen,
   B. G. Johnson, H. Jónsson, R. A. Kendall, M. Klemm, R. Kobayashi, V. Konkov,
      S. Krishnamoorthy, M. Krishnan, Z. Lin, R. D. Lins, R. J. Littlefield,
      A. J. Logsdail, K. Lopata, W. Ma, A. V. Marenich, J. Martin del Campo,
   D. Mejia-Rodriguez, J. E. Moore, J. M. Mullin, T. Nakajima, D. R. Nascimento,
    J. A. Nichols, P. J. Nichols, J. Nieplocha, A. Otero-de-la-Roza, B. Palmer,
    A. Panyala, T. Pirojsirikul, B. Peng, R. Peverati, J. Pittner, L. Pollack,
   R. M. Richard, P. Sadayappan, G. C. Schatz, W. A. Shelton, D. W. Silverstein,
   D. M. A. Smith, T. A. Soares, D. Song, M. Swart, H. L. Taylor, G. S. Thomas,
            V. Tipparaju, D. G. Truhlar, K. Tsemekhman, T. Van Voorhis,
     Á. Vázquez-Mayagoitia, P. Verma, O. Villa, A. Vishnu, K. D. Vogiatzis,
        D. Wang, J. H. Weare, M. J. Williamson, T. L. Windus, K. Woliński,
        A. T. Wong, Q. Wu, C. Yang, Q. Yu, M. Zacharias, Z. Zhang, Y. Zhao,
                                and R. J. Harrison
                        "NWChem: Past, present, and future
                         J. Chem. Phys. 152, 184102 (2020)
                               doi:10.1063/5.0004997

                                      AUTHORS
                                      -------
     E. Apra, E. J. Bylaska, N. Govind, K. Kowalski, M. Valiev, W. A. de Jong,
      T. P. Straatsma, H. J. J. van Dam, D. Wang, T. L. Windus, N. P. Bauman,
       A. Panyala, J. Hammond, J. Autschbach, K. Bhaskaran-Nair, J. Brabec,
    K. Lopata, S. A. Fischer, S. Krishnamoorthy, M. Jacquelin, W. Ma, M. Klemm,
       O. Villa, Y. Chen, V. Anisimov, F. Aquino, S. Hirata, M. T. Hackler,
           Eric Hermes, L. Jensen, J. E. Moore, J. C. Becca, V. Konjkov,
            D. Mejia-Rodriguez, T. Risthaus, M. Malagoli, A. Marenich,
   A. Otero-de-la-Roza, J. Mullin, P. Nichols, R. Peverati, J. Pittner, Y. Zhao,
        P.-D. Fan, A. Fonari, M. J. Williamson, R. J. Harrison, J. R. Rehr,
      M. Dupuis, D. Silverstein, D. M. A. Smith, J. Nieplocha, V. Tipparaju,
      M. Krishnan, B. E. Van Kuiken, A. Vazquez-Mayagoitia, M. Swart, Q. Wu,
   T. Van Voorhis, A. A. Auer, M. Nooijen, L. D. Crosby, E. Brown, G. Cisneros,
     G. I. Fann, H. Fruchtl, J. Garza, K. Hirao, R. A. Kendall, J. A. Nichols,
       K. Tsemekhman, K. Wolinski, J. Anchell, D. E. Bernholdt, P. Borowski,
       T. Clark, D. Clerc, H. Dachsel, M. J. O. Deegan, K. Dyall, D. Elwood,
      E. Glendening, M. Gutowski, A. C. Hess, J. Jaffe, B. G. Johnson, J. Ju,
        R. Kobayashi, R. Kutteh, Z. Lin, R. Littlefield, X. Long, B. Meng,
      T. Nakajima, S. Niu, L. Pollack, M. Rosing, K. Glaesemann, G. Sandrone,
      M. Stave, H. Taylor, G. Thomas, J. H. van Lenthe, A. T. Wong, Z. Zhang.

 Total times  cpu:        0.8s     wall:        0.9s
