 argument  1 = nwchem/input_3_12_at_worker_3.nw



============================== echo of input deck ==============================
echo
memory 1000 mb
geometry noautosym noautoz
O -0.82054445 0.61636011 -1.6312343
H -0.26682713 1.17302621 -1.05309865
H -0.36885969 -0.24447946 -1.58195952
O -0.64071556 -0.48854013 1.6410419
H -0.19915392 0.37247798 1.5285638
H -1.54433112 -0.32408724 1.298356
O 2.81159896 -0.10395953 -0.18689424
H 3.46294039 -0.4517338 0.43482057
H 2.1584952 -0.82915775 -0.30211113
end
basis spherical
 * library cc-pvdz
end
task scf gradient
================================================================================


                                         
                                         


             Northwest Computational Chemistry Package (NWChem) 7.0.2
             --------------------------------------------------------


                    Environmental Molecular Sciences Laboratory
                       Pacific Northwest National Laboratory
                                Richland, WA 99352

                              Copyright (c) 1994-2020
                       Pacific Northwest National Laboratory
                            Battelle Memorial Institute

             NWChem is an open-source computational chemistry package
                        distributed under the terms of the
                      Educational Community License (ECL) 2.0
             A copy of the license is included with this distribution
                              in the LICENSE.TXT file

                                  ACKNOWLEDGMENT
                                  --------------

            This software and its documentation were developed at the
            EMSL at Pacific Northwest National Laboratory, a multiprogram
            national laboratory, operated for the U.S. Department of Energy
            by Battelle under Contract Number DE-AC05-76RL01830. Support
            for this work was provided by the Department of Energy Office
            of Biological and Environmental Research, Office of Basic
            Energy Sciences, and the Office of Advanced Scientific Computing.


           Job information
           ---------------

    hostname        = pop-os
    program         = nwchem
    date            = Thu Jul  8 18:19:48 2021

    compiled        = Wed_Jan_06_19:48:08_2021
    source          = /build/nwchem-ksKH2r/nwchem-7.0.2
    nwchem branch   = 7.0.2
    nwchem revision = N/A
    ga revision     = 5.7.1
    use scalapack   = T
    input           = nwchem/input_3_12_at_worker_3.nw
    prefix          = input_3_12_at_worker_3.
    data base       = ./input_3_12_at_worker_3.db
    status          = startup
    nproc           =        1
    time left       =     -1s



           Memory information
           ------------------

    heap     =   32767996 doubles =    250.0 Mbytes
    stack    =   32768001 doubles =    250.0 Mbytes
    global   =   65536000 doubles =    500.0 Mbytes (distinct from heap & stack)
    total    =  131071997 doubles =   1000.0 Mbytes
    verify   = yes
    hardfail = no 


           Directory information
           ---------------------

  0 permanent = .
  0 scratch   = .




                                NWChem Input Module
                                -------------------



 Scaling coordinates for geometry "geometry" by  1.889725989
 (inverse scale =  0.529177249)



                             Geometry "geometry" -> ""
                             -------------------------

 Output coordinates in angstroms (scale by  1.889725989 to convert to a.u.)

  No.       Tag          Charge          X              Y              Z
 ---- ---------------- ---------- -------------- -------------- --------------
    1 O                    8.0000    -1.28871029     0.62012913    -1.59483023
    2 H                    1.0000    -0.73499297     1.17679523    -1.01669458
    3 H                    1.0000    -0.83702553    -0.24071044    -1.54555545
    4 O                    8.0000    -1.10888140    -0.48477111     1.67744597
    5 H                    1.0000    -0.66731976     0.37624700     1.56496787
    6 H                    1.0000    -2.01249696    -0.32031822     1.33476007
    7 O                    8.0000     2.34343312    -0.10019051    -0.15049017
    8 H                    1.0000     2.99477455    -0.44796478     0.47122464
    9 H                    1.0000     1.69032936    -0.82538873    -0.26570706

      Atomic Mass 
      ----------- 

      O                 15.994910
      H                  1.007825


 Effective nuclear repulsion energy (a.u.)      69.9980361037

            Nuclear Dipole moment (a.u.) 
            ----------------------------
        X                 Y               Z
 ---------------- ---------------- ----------------
    -0.0000000000    -0.0000000000     0.0000000000


            XYZ format geometry
            -------------------
     9
 geometry
 O                    -1.28871029     0.62012913    -1.59483023
 H                    -0.73499297     1.17679523    -1.01669458
 H                    -0.83702553    -0.24071044    -1.54555545
 O                    -1.10888140    -0.48477111     1.67744597
 H                    -0.66731976     0.37624700     1.56496787
 H                    -2.01249696    -0.32031822     1.33476007
 O                     2.34343312    -0.10019051    -0.15049017
 H                     2.99477455    -0.44796478     0.47122464
 H                     1.69032936    -0.82538873    -0.26570706

 ==============================================================================
                                internuclear distances
 ------------------------------------------------------------------------------
       center one      |      center two      | atomic units |  angstroms
 ------------------------------------------------------------------------------
    2 H                |   1 O                |     1.84258  |     0.97505
    3 H                |   1 O                |     1.83944  |     0.97339
    5 H                |   4 O                |     1.84089  |     0.97416
    6 H                |   4 O                |     1.85251  |     0.98031
    8 H                |   7 O                |     1.82407  |     0.96526
    9 H                |   7 O                |     1.85707  |     0.98272
 ------------------------------------------------------------------------------
                         number of included internuclear distances:          6
 ==============================================================================



 ==============================================================================
                                 internuclear angles
 ------------------------------------------------------------------------------
        center 1       |       center 2       |       center 3       |  degrees
 ------------------------------------------------------------------------------
    2 H                |   1 O                |   3 H                |   102.20
    5 H                |   4 O                |   6 H                |   103.25
    8 H                |   7 O                |   9 H                |   104.96
 ------------------------------------------------------------------------------
                            number of included internuclear angles:          3
 ==============================================================================





 Summary of "ao basis" -> "" (spherical)
 ------------------------------------------------------------------------------
       Tag                 Description            Shells   Functions and Types
 ---------------- ------------------------------  ------  ---------------------
 *                          cc-pvdz                   on all atoms 


                      Basis "ao basis" -> "ao basis" (spherical)
                      -----
  O (Oxygen)
  ----------
            Exponent  Coefficients 
       -------------- ---------------------------------------------------------
  1 S  1.17200000E+04  0.000710
  1 S  1.75900000E+03  0.005470
  1 S  4.00800000E+02  0.027837
  1 S  1.13700000E+02  0.104800
  1 S  3.70300000E+01  0.283062
  1 S  1.32700000E+01  0.448719
  1 S  5.02500000E+00  0.270952
  1 S  1.01300000E+00  0.015458

  2 S  1.17200000E+04 -0.000160
  2 S  1.75900000E+03 -0.001263
  2 S  4.00800000E+02 -0.006267
  2 S  1.13700000E+02 -0.025716
  2 S  3.70300000E+01 -0.070924
  2 S  1.32700000E+01 -0.165411
  2 S  5.02500000E+00 -0.116955
  2 S  1.01300000E+00  0.557368

  3 S  3.02300000E-01  1.000000

  4 P  1.77000000E+01  0.043018
  4 P  3.85400000E+00  0.228913
  4 P  1.04600000E+00  0.508728

  5 P  2.75300000E-01  1.000000

  6 D  1.18500000E+00  1.000000

  H (Hydrogen)
  ------------
            Exponent  Coefficients 
       -------------- ---------------------------------------------------------
  1 S  1.30100000E+01  0.019685
  1 S  1.96200000E+00  0.137977
  1 S  4.44600000E-01  0.478148

  2 S  1.22000000E-01  1.000000

  3 P  7.27000000E-01  1.000000



 Summary of "ao basis" -> "ao basis" (spherical)
 ------------------------------------------------------------------------------
       Tag                 Description            Shells   Functions and Types
 ---------------- ------------------------------  ------  ---------------------
 O                          cc-pvdz                  6       14   3s2p1d
 H                          cc-pvdz                  3        5   2s1p


                                 NWChem SCF Module
                                 -----------------



  ao basis        = "ao basis"
  functions       =    72
  atoms           =     9
  closed shells   =    15
  open shells     =     0
  charge          =   0.00
  wavefunction    = RHF 
  input vectors   = atomic
  output vectors  = ./input_3_12_at_worker_3.movecs
  use symmetry    = F
  symmetry adapt  = F


 Summary of "ao basis" -> "ao basis" (spherical)
 ------------------------------------------------------------------------------
       Tag                 Description            Shells   Functions and Types
 ---------------- ------------------------------  ------  ---------------------
 O                          cc-pvdz                  6       14   3s2p1d
 H                          cc-pvdz                  3        5   2s1p



 Forming initial guess at       0.1s


      Superposition of Atomic Density Guess
      -------------------------------------

 Sum of atomic energies:        -227.28668731

      Non-variational initial energy
      ------------------------------

 Total energy =    -227.683355
 1-e energy   =    -450.345733
 2-e energy   =     152.664341
 HOMO         =      -0.459336
 LUMO         =       0.036396


 Starting SCF solution at       0.3s



 ----------------------------------------------
         Quadratically convergent ROHF

 Convergence threshold     :          1.000E-04
 Maximum no. of iterations :           30
 Final Fock-matrix accuracy:          1.000E-07
 ----------------------------------------------


 Integral file          = ./input_3_12_at_worker_3.aoints.0
 Record size in doubles =  65536        No. of integs per rec  =  43688
 Max. records in memory =    110        Max. records in file   = 400280
 No. of bits per label  =      8        No. of bits per value  =     64


 #quartets = 1.475D+05 #integrals = 1.624D+06 #direct =  0.0% #cached =100.0%


              iter       energy          gnorm     gmax       time
             ----- ------------------- --------- --------- --------
                 1     -227.9792905272  1.42D+00  2.60D-01      0.7
                 2     -228.0749216523  3.02D-01  7.70D-02      0.7
                 3     -228.0818783153  2.64D-02  6.24D-03      0.8
                 4     -228.0819344074  4.54D-04  8.82D-05      0.9
                 5     -228.0819344228  7.86D-06  1.83D-06      1.0


       Final RHF  results 
       ------------------ 

         Total SCF energy =   -228.081934422844
      One-electron energy =   -454.126178047543
      Two-electron energy =    156.046207520986
 Nuclear repulsion energy =     69.998036103713

        Time for solution =      0.7s


             Final eigenvalues
             -----------------

              1      
    1  -20.5651
    2  -20.5638
    3  -20.5608
    4   -1.3398
    5   -1.3371
    6   -1.3347
    7   -0.7035
    8   -0.6951
    9   -0.6910
   10   -0.5769
   11   -0.5748
   12   -0.5722
   13   -0.5050
   14   -0.5028
   15   -0.4945
   16    0.1319
   17    0.1934
   18    0.2139
   19    0.2333
   20    0.2694
   21    0.3079
   22    0.7574
   23    0.7663
   24    0.7733
   25    0.8240

                       ROHF Final Molecular Orbital Analysis
                       -------------------------------------

 Vector    4  Occ=2.000000D+00  E=-1.339817D+00
              MO Center=  2.3D+00, -2.4D-01, -7.3D-02, r^2= 7.6D-01
   Bfn.  Coefficient  Atom+Function         Bfn.  Coefficient  Atom+Function  
  ----- ------------  ---------------      ----- ------------  ---------------
    50      0.441020  7 O  s                 51      0.385100  7 O  s          
    63      0.188923  8 H  s                 68      0.180253  9 H  s          

 Vector    5  Occ=2.000000D+00  E=-1.337050D+00
              MO Center= -1.1D+00, -7.8D-02,  7.0D-01, r^2= 2.9D+00
   Bfn.  Coefficient  Atom+Function         Bfn.  Coefficient  Atom+Function  
  ----- ------------  ---------------      ----- ------------  ---------------
    26      0.371641  4 O  s                 27      0.324732  4 O  s          
     2      0.237081  1 O  s                  3      0.204388  1 O  s          
    39      0.156293  5 H  s                 44      0.152508  6 H  s          

 Vector    6  Occ=2.000000D+00  E=-1.334738D+00
              MO Center= -1.2D+00,  3.1D-01, -5.9D-01, r^2= 2.7D+00
   Bfn.  Coefficient  Atom+Function         Bfn.  Coefficient  Atom+Function  
  ----- ------------  ---------------      ----- ------------  ---------------
     2      0.374102  1 O  s                  3      0.327685  1 O  s          
    26     -0.241061  4 O  s                 27     -0.214736  4 O  s          
    15      0.157886  2 H  s                 20      0.158621  3 H  s          

 Vector    7  Occ=2.000000D+00  E=-7.034744D-01
              MO Center=  2.3D+00, -3.0D-01, -3.9D-02, r^2= 9.9D-01
   Bfn.  Coefficient  Atom+Function         Bfn.  Coefficient  Atom+Function  
  ----- ------------  ---------------      ----- ------------  ---------------
    52      0.409586  7 O  px                63      0.325088  8 H  s          
    68     -0.316773  9 H  s                 54      0.236684  7 O  pz         
    55      0.192090  7 O  px         

 Vector    8  Occ=2.000000D+00  E=-6.951336D-01
              MO Center= -1.2D+00, -1.9D-01,  1.2D+00, r^2= 1.9D+00
   Bfn.  Coefficient  Atom+Function         Bfn.  Coefficient  Atom+Function  
  ----- ------------  ---------------      ----- ------------  ---------------
    28      0.400186  4 O  px                39      0.304535  5 H  s          
    44     -0.298594  6 H  s                 29      0.213908  4 O  py         
    31      0.189823  4 O  px                 5      0.151629  1 O  py         

 Vector    9  Occ=2.000000D+00  E=-6.909643D-01
              MO Center= -1.1D+00,  4.7D-01, -1.1D+00, r^2= 1.8D+00
   Bfn.  Coefficient  Atom+Function         Bfn.  Coefficient  Atom+Function  
  ----- ------------  ---------------      ----- ------------  ---------------
     5      0.431880  1 O  py                20     -0.304601  3 H  s          
    15      0.302678  2 H  s                  8      0.204429  1 O  py         
     6      0.160992  1 O  pz         

 Vector   10  Occ=2.000000D+00  E=-5.768777D-01
              MO Center= -8.9D-01, -8.6D-02,  4.2D-01, r^2= 4.3D+00
   Bfn.  Coefficient  Atom+Function         Bfn.  Coefficient  Atom+Function  
  ----- ------------  ---------------      ----- ------------  ---------------
    29      0.341394  4 O  py                27     -0.261845  4 O  s          
     4      0.244126  1 O  px                32      0.228283  4 O  py         
     3     -0.209512  1 O  s                  6      0.174244  1 O  pz         
    30     -0.166776  4 O  pz                 7      0.160257  1 O  px         
    44      0.159388  6 H  s                 28     -0.157021  4 O  px         

 Vector   11  Occ=2.000000D+00  E=-5.747661D-01
              MO Center=  2.0D+00, -5.8D-02, -1.5D-01, r^2= 1.9D+00
   Bfn.  Coefficient  Atom+Function         Bfn.  Coefficient  Atom+Function  
  ----- ------------  ---------------      ----- ------------  ---------------
    53      0.472869  7 O  py                51      0.328313  7 O  s          
    56      0.319317  7 O  py                54     -0.222282  7 O  pz         
    68     -0.201502  9 H  s                 63     -0.192882  8 H  s          
    57     -0.150565  7 O  pz         

 Vector   12  Occ=2.000000D+00  E=-5.721630D-01
              MO Center= -1.2D+00,  1.9D-01, -3.6D-01, r^2= 3.6D+00
   Bfn.  Coefficient  Atom+Function         Bfn.  Coefficient  Atom+Function  
  ----- ------------  ---------------      ----- ------------  ---------------
     4      0.363387  1 O  px                29     -0.292805  4 O  py         
     3     -0.264845  1 O  s                  7      0.245312  1 O  px         
    27      0.207129  4 O  s                  6      0.205044  1 O  pz         
    32     -0.199099  4 O  py                15      0.170927  2 H  s          
    20      0.163233  3 H  s          

 Vector   13  Occ=2.000000D+00  E=-5.049838D-01
              MO Center=  1.9D-01, -1.3D-01,  3.5D-01, r^2= 5.2D+00
   Bfn.  Coefficient  Atom+Function         Bfn.  Coefficient  Atom+Function  
  ----- ------------  ---------------      ----- ------------  ---------------
    30      0.367069  4 O  pz                54     -0.299422  7 O  pz         
    33      0.292511  4 O  pz                57     -0.237318  7 O  pz         
    52      0.206626  7 O  px                 6     -0.196260  1 O  pz         
     4      0.175895  1 O  px                55      0.162004  7 O  px         
     9     -0.159144  1 O  pz         

 Vector   14  Occ=2.000000D+00  E=-5.027761D-01
              MO Center=  9.6D-01, -7.2D-02,  1.0D-02, r^2= 4.7D+00
   Bfn.  Coefficient  Atom+Function         Bfn.  Coefficient  Atom+Function  
  ----- ------------  ---------------      ----- ------------  ---------------
    54      0.378203  7 O  pz                57      0.294944  7 O  pz         
    30      0.264858  4 O  pz                52     -0.265726  7 O  px         
    55     -0.211892  7 O  px                33      0.210585  4 O  pz         
     6     -0.199200  1 O  pz                53      0.170500  7 O  py         
     9     -0.161084  1 O  pz                 4      0.153650  1 O  px         

 Vector   15  Occ=2.000000D+00  E=-4.944838D-01
              MO Center= -1.2D+00,  2.3D-01, -4.2D-01, r^2= 3.4D+00
   Bfn.  Coefficient  Atom+Function         Bfn.  Coefficient  Atom+Function  
  ----- ------------  ---------------      ----- ------------  ---------------
     6      0.409118  1 O  pz                30      0.358975  4 O  pz         
     9      0.317116  1 O  pz                33      0.276803  4 O  pz         
     4     -0.269263  1 O  px                 7     -0.209928  1 O  px         

 Vector   16  Occ=0.000000D+00  E= 1.318512D-01
              MO Center=  1.2D-01, -6.4D-02, -8.1D-02, r^2= 5.5D+00
   Bfn.  Coefficient  Atom+Function         Bfn.  Coefficient  Atom+Function  
  ----- ------------  ---------------      ----- ------------  ---------------
    69      0.565712  9 H  s                 51     -0.515675  7 O  s          
     3     -0.502338  1 O  s                 40      0.461944  5 H  s          
    27     -0.438545  4 O  s                 21      0.436101  3 H  s          
    16      0.398607  2 H  s                 64      0.270127  8 H  s          
    45      0.256219  6 H  s                 56      0.175962  7 O  py         

 Vector   17  Occ=0.000000D+00  E= 1.934011D-01
              MO Center=  6.5D-01, -2.1D-01,  5.7D-01, r^2= 7.8D+00
   Bfn.  Coefficient  Atom+Function         Bfn.  Coefficient  Atom+Function  
  ----- ------------  ---------------      ----- ------------  ---------------
    51      0.714554  7 O  s                 64     -0.706960  8 H  s          
    27     -0.593724  4 O  s                 45      0.566743  6 H  s          
    69     -0.487199  9 H  s                 16      0.449014  2 H  s          
    40      0.435142  5 H  s                 21     -0.282606  3 H  s          
    56     -0.217317  7 O  py                32     -0.176328  4 O  py         

 Vector   18  Occ=0.000000D+00  E= 2.138742D-01
              MO Center=  9.3D-01, -3.4D-01, -1.5D-01, r^2= 7.5D+00
   Bfn.  Coefficient  Atom+Function         Bfn.  Coefficient  Atom+Function  
  ----- ------------  ---------------      ----- ------------  ---------------
    64     -1.042374  8 H  s                 21      0.980419  3 H  s          
    40     -0.623561  5 H  s                 69      0.500383  9 H  s          
     3     -0.409626  1 O  s                  8      0.324467  1 O  py         
    27      0.323954  4 O  s                 51      0.310952  7 O  s          
    55      0.307813  7 O  px                16     -0.285012  2 H  s          

 Vector   19  Occ=0.000000D+00  E= 2.333473D-01
              MO Center= -1.5D+00,  3.1D-01,  4.5D-01, r^2= 5.4D+00
   Bfn.  Coefficient  Atom+Function         Bfn.  Coefficient  Atom+Function  
  ----- ------------  ---------------      ----- ------------  ---------------
    45      1.258698  6 H  s                 16     -0.965966  2 H  s          
    27     -0.498193  4 O  s                  3      0.457465  1 O  s          
    31      0.427080  4 O  px                40     -0.412472  5 H  s          
     8      0.224079  1 O  py                64      0.196936  8 H  s          
    21      0.194552  3 H  s                 28      0.192644  4 O  px         

 Vector   20  Occ=0.000000D+00  E= 2.694294D-01
              MO Center=  3.6D-01,  1.3D-01,  3.1D-01, r^2= 7.1D+00
   Bfn.  Coefficient  Atom+Function         Bfn.  Coefficient  Atom+Function  
  ----- ------------  ---------------      ----- ------------  ---------------
    40      1.033311  5 H  s                 69      0.914654  9 H  s          
    64     -0.818053  8 H  s                 16     -0.750795  2 H  s          
     3      0.591770  1 O  s                 45     -0.593575  6 H  s          
    55      0.363093  7 O  px                31     -0.290366  4 O  px         
    27     -0.261427  4 O  s                 21     -0.252831  3 H  s          

 Vector   21  Occ=0.000000D+00  E= 3.079232D-01
              MO Center=  1.5D-02, -1.8D-01, -3.7D-01, r^2= 6.6D+00
   Bfn.  Coefficient  Atom+Function         Bfn.  Coefficient  Atom+Function  
  ----- ------------  ---------------      ----- ------------  ---------------
    21      1.209829  3 H  s                 69     -1.043375  9 H  s          
    16     -0.942619  2 H  s                 40      0.890681  5 H  s          
    64      0.579200  8 H  s                 45     -0.565531  6 H  s          
     8      0.461789  1 O  py                55     -0.320163  7 O  px         
    31     -0.277798  4 O  px                51      0.261740  7 O  s          

 Vector   22  Occ=0.000000D+00  E= 7.573873D-01
              MO Center= -2.3D-01, -2.7D-01,  9.4D-01, r^2= 4.5D+00
   Bfn.  Coefficient  Atom+Function         Bfn.  Coefficient  Atom+Function  
  ----- ------------  ---------------      ----- ------------  ---------------
    39      0.770895  5 H  s                 44     -0.767946  6 H  s          
    68      0.669988  9 H  s                 45      0.562447  6 H  s          
    40     -0.539162  5 H  s                 69     -0.432167  9 H  s          
    31     -0.334513  4 O  px                63     -0.291518  8 H  s          
    64      0.238064  8 H  s                 55      0.216095  7 O  px         

 Vector   23  Occ=0.000000D+00  E= 7.663398D-01
              MO Center= -9.6D-01,  5.6D-01, -1.3D+00, r^2= 2.0D+00
   Bfn.  Coefficient  Atom+Function         Bfn.  Coefficient  Atom+Function  
  ----- ------------  ---------------      ----- ------------  ---------------
    15      0.961986  2 H  s                 20     -0.910935  3 H  s          
    16     -0.770633  2 H  s                 21      0.728981  3 H  s          
     8     -0.397613  1 O  py                 5     -0.231325  1 O  py         
    40      0.218819  5 H  s          

 Vector   24  Occ=0.000000D+00  E= 7.732753D-01
              MO Center=  9.7D-01, -2.8D-01,  2.2D-01, r^2= 5.9D+00
   Bfn.  Coefficient  Atom+Function         Bfn.  Coefficient  Atom+Function  
  ----- ------------  ---------------      ----- ------------  ---------------
    63      0.813740  8 H  s                 68     -0.650929  9 H  s          
    64     -0.582223  8 H  s                 44     -0.562466  6 H  s          
    69      0.523709  9 H  s                 45      0.416145  6 H  s          
    20     -0.364283  3 H  s                 40     -0.360441  5 H  s          
    39      0.344317  5 H  s                 55     -0.289270  7 O  px         

 Vector   25  Occ=0.000000D+00  E= 8.239500D-01
              MO Center=  7.1D-01, -2.6D-01,  6.0D-01, r^2= 6.3D+00
   Bfn.  Coefficient  Atom+Function         Bfn.  Coefficient  Atom+Function  
  ----- ------------  ---------------      ----- ------------  ---------------
    63      0.752457  8 H  s                 44      0.582356  6 H  s          
    64     -0.551074  8 H  s                 45     -0.419117  6 H  s          
    39      0.403274  5 H  s                 68      0.333412  9 H  s          
    20      0.262053  3 H  s                 15      0.230158  2 H  s          
    53      0.207305  7 O  py                40     -0.205950  5 H  s          


 center of mass
 --------------
 x =  -0.01502510 y =   0.00975644 z =  -0.01883026

 moments of inertia (a.u.)
 ------------------
         381.077059335652          39.166910825171          11.628618500037
          39.166910825171         877.843109961246         104.424270266192
          11.628618500037         104.424270266192         587.170905189333

  Mulliken analysis of the total density
  --------------------------------------

    Atom       Charge   Shell Charges
 -----------   ------   -------------------------------------------------------
    1 O    8     8.32   2.00  0.84  0.84  2.80  1.83  0.01
    2 H    1     0.84   0.68  0.08  0.08
    3 H    1     0.84   0.68  0.07  0.08
    4 O    8     8.34   2.00  0.84  0.84  2.80  1.84  0.01
    5 H    1     0.84   0.68  0.08  0.08
    6 H    1     0.83   0.67  0.08  0.08
    7 O    8     8.33   2.00  0.83  0.84  2.81  1.84  0.01
    8 H    1     0.83   0.68  0.07  0.08
    9 H    1     0.83   0.67  0.08  0.08

       Multipole analysis of the density wrt the origin
       ------------------------------------------------

     L   x y z        total         open         nuclear
     -   - - -        -----         ----         -------
     0   0 0 0      0.000000      0.000000     30.000000

     1   1 0 0      0.375874      0.000000     -0.000000
     1   0 1 0     -0.250158      0.000000     -0.000000
     1   0 0 1      0.466870      0.000000      0.000000

     2   2 0 0    -13.157256      0.000000    302.178969
     2   1 1 0     -2.387177      0.000000    -24.918346
     2   1 0 1      0.071338      0.000000     -7.096947
     2   0 2 0    -12.809107      0.000000     27.160456
     2   0 1 1      3.806620      0.000000    -53.393577
     2   0 0 2    -18.863779      0.000000    182.072204


 Parallel integral file used      38 records with       0 large values

                              NWChem Gradients Module
                              -----------------------



  wavefunction    =   RHF     



                         RHF ENERGY GRADIENTS

    atom               coordinates                        gradient
                 x          y          z           x          y          z
   1 O      -2.435309   1.171874  -3.013792   -0.031017   0.008987  -0.023182
   2 H      -1.388935   2.223821  -1.921274    0.016150   0.014987   0.019434
   3 H      -1.581749  -0.454877  -2.920676    0.014562  -0.023944   0.002695
   4 O      -2.095482  -0.916085   3.169913    0.017126  -0.031471   0.017775
   5 H      -1.261052   0.711004   2.957360    0.012658   0.025588  -0.004581
   6 H      -3.803068  -0.605314   2.522331   -0.031487   0.005780  -0.010988
   7 O       4.428446  -0.189333  -0.284385    0.013696   0.030828  -0.006769
   8 H       5.659303  -0.846531   0.890485    0.015236  -0.005405   0.012951
   9 H       3.194259  -1.559759  -0.502114   -0.026925  -0.025351  -0.007335

                 ----------------------------------------
                 |  Time  |  1-e(secs)   |  2-e(secs)   |
                 ----------------------------------------
                 |  CPU   |       0.01   |       0.56   |
                 ----------------------------------------
                 |  WALL  |       0.01   |       0.57   |
                 ----------------------------------------

 Task  times  cpu:        1.6s     wall:        1.6s


                                NWChem Input Module
                                -------------------


 Summary of allocated global arrays
-----------------------------------
  No active global arrays



                         GA Statistics for process    0
                         ------------------------------

       create   destroy   get      put      acc     scatter   gather  read&inc
calls:  249      249     8489     3842     3497        0        0      153     
number of processes/call 0.00e+00 0.00e+00 0.00e+00 0.00e+00 0.00e+00
bytes total:             1.43e+07 8.59e+06 2.03e+06 0.00e+00 0.00e+00 1.22e+03
bytes remote:            0.00e+00 0.00e+00 0.00e+00 0.00e+00 0.00e+00 0.00e+00
Max memory consumed for GA by this process: 539136 bytes

MA_summarize_allocated_blocks: starting scan ...
MA_summarize_allocated_blocks: scan completed: 0 heap blocks, 0 stack blocks
MA usage statistics:

	allocation statistics:
					      heap	     stack
					      ----	     -----
	current number of blocks	         0	         0
	maximum number of blocks	        18	        28
	current total bytes		         0	         0
	maximum total bytes		  57703112	  26171432
	maximum total K-bytes		     57704	     26172
	maximum total M-bytes		        58	        27


                                     CITATION
                                     --------
                Please cite the following reference when publishing
                           results obtained with NWChem:

          E. Aprà, E. J. Bylaska, W. A. de Jong, N. Govind, K. Kowalski,
       T. P. Straatsma, M. Valiev, H. J. J. van Dam, Y. Alexeev, J. Anchell,
       V. Anisimov, F. W. Aquino, R. Atta-Fynn, J. Autschbach, N. P. Bauman,
     J. C. Becca, D. E. Bernholdt, K. Bhaskaran-Nair, S. Bogatko, P. Borowski,
        J. Boschen, J. Brabec, A. Bruner, E. Cauët, Y. Chen, G. N. Chuev,
      C. J. Cramer, J. Daily, M. J. O. Deegan, T. H. Dunning Jr., M. Dupuis,
   K. G. Dyall, G. I. Fann, S. A. Fischer, A. Fonari, H. Früchtl, L. Gagliardi,
      J. Garza, N. Gawande, S. Ghosh, K. Glaesemann, A. W. Götz, J. Hammond,
       V. Helms, E. D. Hermes, K. Hirao, S. Hirata, M. Jacquelin, L. Jensen,
   B. G. Johnson, H. Jónsson, R. A. Kendall, M. Klemm, R. Kobayashi, V. Konkov,
      S. Krishnamoorthy, M. Krishnan, Z. Lin, R. D. Lins, R. J. Littlefield,
      A. J. Logsdail, K. Lopata, W. Ma, A. V. Marenich, J. Martin del Campo,
   D. Mejia-Rodriguez, J. E. Moore, J. M. Mullin, T. Nakajima, D. R. Nascimento,
    J. A. Nichols, P. J. Nichols, J. Nieplocha, A. Otero-de-la-Roza, B. Palmer,
    A. Panyala, T. Pirojsirikul, B. Peng, R. Peverati, J. Pittner, L. Pollack,
   R. M. Richard, P. Sadayappan, G. C. Schatz, W. A. Shelton, D. W. Silverstein,
   D. M. A. Smith, T. A. Soares, D. Song, M. Swart, H. L. Taylor, G. S. Thomas,
            V. Tipparaju, D. G. Truhlar, K. Tsemekhman, T. Van Voorhis,
     Á. Vázquez-Mayagoitia, P. Verma, O. Villa, A. Vishnu, K. D. Vogiatzis,
        D. Wang, J. H. Weare, M. J. Williamson, T. L. Windus, K. Woliński,
        A. T. Wong, Q. Wu, C. Yang, Q. Yu, M. Zacharias, Z. Zhang, Y. Zhao,
                                and R. J. Harrison
                        "NWChem: Past, present, and future
                         J. Chem. Phys. 152, 184102 (2020)
                               doi:10.1063/5.0004997

                                      AUTHORS
                                      -------
     E. Apra, E. J. Bylaska, N. Govind, K. Kowalski, M. Valiev, W. A. de Jong,
      T. P. Straatsma, H. J. J. van Dam, D. Wang, T. L. Windus, N. P. Bauman,
       A. Panyala, J. Hammond, J. Autschbach, K. Bhaskaran-Nair, J. Brabec,
    K. Lopata, S. A. Fischer, S. Krishnamoorthy, M. Jacquelin, W. Ma, M. Klemm,
       O. Villa, Y. Chen, V. Anisimov, F. Aquino, S. Hirata, M. T. Hackler,
           Eric Hermes, L. Jensen, J. E. Moore, J. C. Becca, V. Konjkov,
            D. Mejia-Rodriguez, T. Risthaus, M. Malagoli, A. Marenich,
   A. Otero-de-la-Roza, J. Mullin, P. Nichols, R. Peverati, J. Pittner, Y. Zhao,
        P.-D. Fan, A. Fonari, M. J. Williamson, R. J. Harrison, J. R. Rehr,
      M. Dupuis, D. Silverstein, D. M. A. Smith, J. Nieplocha, V. Tipparaju,
      M. Krishnan, B. E. Van Kuiken, A. Vazquez-Mayagoitia, M. Swart, Q. Wu,
   T. Van Voorhis, A. A. Auer, M. Nooijen, L. D. Crosby, E. Brown, G. Cisneros,
     G. I. Fann, H. Fruchtl, J. Garza, K. Hirao, R. A. Kendall, J. A. Nichols,
       K. Tsemekhman, K. Wolinski, J. Anchell, D. E. Bernholdt, P. Borowski,
       T. Clark, D. Clerc, H. Dachsel, M. J. O. Deegan, K. Dyall, D. Elwood,
      E. Glendening, M. Gutowski, A. C. Hess, J. Jaffe, B. G. Johnson, J. Ju,
        R. Kobayashi, R. Kutteh, Z. Lin, R. Littlefield, X. Long, B. Meng,
      T. Nakajima, S. Niu, L. Pollack, M. Rosing, K. Glaesemann, G. Sandrone,
      M. Stave, H. Taylor, G. Thomas, J. H. van Lenthe, A. T. Wong, Z. Zhang.

 Total times  cpu:        1.6s     wall:        1.6s
