 argument  1 = nwchem/input_4_14_at_worker_3_1.nw



============================== echo of input deck ==============================
echo
memory 1000 mb
geometry noautosym noautoz
O -0.82054445 0.61636011 -1.6312343
H -0.26682713 1.17302621 -1.05309865
H -0.36885969 -0.24447946 -1.58195952
O 0.57630762 -1.69154092 -0.42866929
H 0.43417462 -2.64420081 -0.48595869
H 0.08911917 -1.3894609 0.38589939
O 2.81159896 -0.10395953 -0.18689424
H 3.46294039 -0.4517338 0.43482057
H 2.1584952 -0.82915775 -0.30211113
O -2.88801599 -0.0663369 0.05761427
H -2.29024563 0.26724676 -0.65069518
H -3.66545029 0.50362404 0.03495814
end
basis spherical
 * library cc-pvdz
end
task scf gradient
================================================================================


                                         
                                         


             Northwest Computational Chemistry Package (NWChem) 7.0.2
             --------------------------------------------------------


                    Environmental Molecular Sciences Laboratory
                       Pacific Northwest National Laboratory
                                Richland, WA 99352

                              Copyright (c) 1994-2020
                       Pacific Northwest National Laboratory
                            Battelle Memorial Institute

             NWChem is an open-source computational chemistry package
                        distributed under the terms of the
                      Educational Community License (ECL) 2.0
             A copy of the license is included with this distribution
                              in the LICENSE.TXT file

                                  ACKNOWLEDGMENT
                                  --------------

            This software and its documentation were developed at the
            EMSL at Pacific Northwest National Laboratory, a multiprogram
            national laboratory, operated for the U.S. Department of Energy
            by Battelle under Contract Number DE-AC05-76RL01830. Support
            for this work was provided by the Department of Energy Office
            of Biological and Environmental Research, Office of Basic
            Energy Sciences, and the Office of Advanced Scientific Computing.


           Job information
           ---------------

    hostname        = pop-os
    program         = nwchem
    date            = Thu Jul  8 18:22:44 2021

    compiled        = Wed_Jan_06_19:48:08_2021
    source          = /build/nwchem-ksKH2r/nwchem-7.0.2
    nwchem branch   = 7.0.2
    nwchem revision = N/A
    ga revision     = 5.7.1
    use scalapack   = T
    input           = nwchem/input_4_14_at_worker_3_1.nw
    prefix          = input_4_14_at_worker_3_1.
    data base       = ./input_4_14_at_worker_3_1.db
    status          = startup
    nproc           =        1
    time left       =     -1s



           Memory information
           ------------------

    heap     =   32767998 doubles =    250.0 Mbytes
    stack    =   32767995 doubles =    250.0 Mbytes
    global   =   65536000 doubles =    500.0 Mbytes (distinct from heap & stack)
    total    =  131071993 doubles =   1000.0 Mbytes
    verify   = yes
    hardfail = no 


           Directory information
           ---------------------

  0 permanent = .
  0 scratch   = .




                                NWChem Input Module
                                -------------------



 Scaling coordinates for geometry "geometry" by  1.889725989
 (inverse scale =  0.529177249)



                             Geometry "geometry" -> ""
                             -------------------------

 Output coordinates in angstroms (scale by  1.889725989 to convert to a.u.)

  No.       Tag          Charge          X              Y              Z
 ---- ---------------- ---------- -------------- -------------- --------------
    1 O                    8.0000    -0.74524734     0.95583395    -1.11294396
    2 H                    1.0000    -0.19153002     1.51250005    -0.53480831
    3 H                    1.0000    -0.29356258     0.09499438    -1.06366918
    4 O                    8.0000     0.65160473    -1.35206708     0.08962105
    5 H                    1.0000     0.50947173    -2.30472697     0.03233165
    6 H                    1.0000     0.16441628    -1.04998706     0.90418973
    7 O                    8.0000     2.88689607     0.23551431     0.33139610
    8 H                    1.0000     3.53823750    -0.11225996     0.95311091
    9 H                    1.0000     2.23379231    -0.48968391     0.21617921
   10 O                    8.0000    -2.81271888     0.27313694     0.57590461
   11 H                    1.0000    -2.21494852     0.60672060    -0.13240484
   12 H                    1.0000    -3.59015318     0.84309788     0.55324848

      Atomic Mass 
      ----------- 

      O                 15.994910
      H                  1.007825


 Effective nuclear repulsion energy (a.u.)     129.5924038583

            Nuclear Dipole moment (a.u.) 
            ----------------------------
        X                 Y               Z
 ---------------- ---------------- ----------------
    -0.0000000000     0.0000000000     0.0000000000


            XYZ format geometry
            -------------------
    12
 geometry
 O                    -0.74524734     0.95583395    -1.11294396
 H                    -0.19153002     1.51250005    -0.53480831
 H                    -0.29356258     0.09499438    -1.06366918
 O                     0.65160473    -1.35206708     0.08962105
 H                     0.50947173    -2.30472697     0.03233165
 H                     0.16441628    -1.04998706     0.90418973
 O                     2.88689607     0.23551431     0.33139610
 H                     3.53823750    -0.11225996     0.95311091
 H                     2.23379231    -0.48968391     0.21617921
 O                    -2.81271888     0.27313694     0.57590461
 H                    -2.21494852     0.60672060    -0.13240484
 H                    -3.59015318     0.84309788     0.55324848

 ==============================================================================
                                internuclear distances
 ------------------------------------------------------------------------------
       center one      |      center two      | atomic units |  angstroms
 ------------------------------------------------------------------------------
    2 H                |   1 O                |     1.84258  |     0.97505
    3 H                |   1 O                |     1.83944  |     0.97339
    5 H                |   4 O                |     1.82341  |     0.96491
    6 H                |   4 O                |     1.88227  |     0.99606
    8 H                |   7 O                |     1.82407  |     0.96526
    9 H                |   7 O                |     1.85707  |     0.98272
   11 H                |  10 O                |     1.86146  |     0.98504
   12 H                |  10 O                |     1.82216  |     0.96425
 ------------------------------------------------------------------------------
                         number of included internuclear distances:          8
 ==============================================================================



 ==============================================================================
                                 internuclear angles
 ------------------------------------------------------------------------------
        center 1       |       center 2       |       center 3       |  degrees
 ------------------------------------------------------------------------------
    2 H                |   1 O                |   3 H                |   102.20
    5 H                |   4 O                |   6 H                |   106.02
    8 H                |   7 O                |   9 H                |   104.96
   11 H                |  10 O                |  12 H                |   105.80
 ------------------------------------------------------------------------------
                            number of included internuclear angles:          4
 ==============================================================================





 Summary of "ao basis" -> "" (spherical)
 ------------------------------------------------------------------------------
       Tag                 Description            Shells   Functions and Types
 ---------------- ------------------------------  ------  ---------------------
 *                          cc-pvdz                   on all atoms 


                      Basis "ao basis" -> "ao basis" (spherical)
                      -----
  O (Oxygen)
  ----------
            Exponent  Coefficients 
       -------------- ---------------------------------------------------------
  1 S  1.17200000E+04  0.000710
  1 S  1.75900000E+03  0.005470
  1 S  4.00800000E+02  0.027837
  1 S  1.13700000E+02  0.104800
  1 S  3.70300000E+01  0.283062
  1 S  1.32700000E+01  0.448719
  1 S  5.02500000E+00  0.270952
  1 S  1.01300000E+00  0.015458

  2 S  1.17200000E+04 -0.000160
  2 S  1.75900000E+03 -0.001263
  2 S  4.00800000E+02 -0.006267
  2 S  1.13700000E+02 -0.025716
  2 S  3.70300000E+01 -0.070924
  2 S  1.32700000E+01 -0.165411
  2 S  5.02500000E+00 -0.116955
  2 S  1.01300000E+00  0.557368

  3 S  3.02300000E-01  1.000000

  4 P  1.77000000E+01  0.043018
  4 P  3.85400000E+00  0.228913
  4 P  1.04600000E+00  0.508728

  5 P  2.75300000E-01  1.000000

  6 D  1.18500000E+00  1.000000

  H (Hydrogen)
  ------------
            Exponent  Coefficients 
       -------------- ---------------------------------------------------------
  1 S  1.30100000E+01  0.019685
  1 S  1.96200000E+00  0.137977
  1 S  4.44600000E-01  0.478148

  2 S  1.22000000E-01  1.000000

  3 P  7.27000000E-01  1.000000



 Summary of "ao basis" -> "ao basis" (spherical)
 ------------------------------------------------------------------------------
       Tag                 Description            Shells   Functions and Types
 ---------------- ------------------------------  ------  ---------------------
 O                          cc-pvdz                  6       14   3s2p1d
 H                          cc-pvdz                  3        5   2s1p


                                 NWChem SCF Module
                                 -----------------



  ao basis        = "ao basis"
  functions       =    96
  atoms           =    12
  closed shells   =    20
  open shells     =     0
  charge          =   0.00
  wavefunction    = RHF 
  input vectors   = atomic
  output vectors  = ./input_4_14_at_worker_3_1.movecs
  use symmetry    = F
  symmetry adapt  = F


 Summary of "ao basis" -> "ao basis" (spherical)
 ------------------------------------------------------------------------------
       Tag                 Description            Shells   Functions and Types
 ---------------- ------------------------------  ------  ---------------------
 O                          cc-pvdz                  6       14   3s2p1d
 H                          cc-pvdz                  3        5   2s1p



 Forming initial guess at       0.1s


      Superposition of Atomic Density Guess
      -------------------------------------

 Sum of atomic energies:        -303.04891642

      Non-variational initial energy
      ------------------------------

 Total energy =    -303.723213
 1-e energy   =    -672.966440
 2-e energy   =     239.650823
 HOMO         =      -0.459298
 LUMO         =       0.041047


 Starting SCF solution at       0.4s



 ----------------------------------------------
         Quadratically convergent ROHF

 Convergence threshold     :          1.000E-04
 Maximum no. of iterations :           30
 Final Fock-matrix accuracy:          1.000E-07
 ----------------------------------------------


 Integral file          = ./input_4_14_at_worker_3_1.aoints.0
 Record size in doubles =  65536        No. of integs per rec  =  43688
 Max. records in memory =    339        Max. records in file   = 400152
 No. of bits per label  =      8        No. of bits per value  =     64


 #quartets = 4.281D+05 #integrals = 4.848D+06 #direct =  0.0% #cached =100.0%


              iter       energy          gnorm     gmax       time
             ----- ------------------- --------- --------- --------
                 1     -304.0066904431  1.54D+00  2.87D-01      1.5
                 2     -304.1176435036  3.36D-01  7.06D-02      1.6
                 3     -304.1267553260  2.77D-02  4.14D-03      1.8
                 4     -304.1268238766  5.19D-04  9.98D-05      2.0
                 5     -304.1268238963  2.28D-06  4.13D-07      2.3


       Final RHF  results 
       ------------------ 

         Total SCF energy =   -304.126823896347
      One-electron energy =   -678.151115655321
      Two-electron energy =    244.431887900693
 Nuclear repulsion energy =    129.592403858282

        Time for solution =      1.9s


             Final eigenvalues
             -----------------

              1      
    1  -20.6157
    2  -20.5662
    3  -20.5279
    4  -20.5168
    5   -1.3887
    6   -1.3459
    7   -1.3079
    8   -1.2964
    9   -0.7523
   10   -0.7013
   11   -0.6894
   12   -0.6743
   13   -0.6177
   14   -0.5889
   15   -0.5600
   16   -0.5396
   17   -0.5274
   18   -0.4936
   19   -0.4717
   20   -0.4620
   21    0.1394
   22    0.2012
   23    0.2178
   24    0.2337
   25    0.2390
   26    0.3125
   27    0.3687
   28    0.4104
   29    0.7053
   30    0.7521

                       ROHF Final Molecular Orbital Analysis
                       -------------------------------------

 Vector    5  Occ=2.000000D+00  E=-1.388671D+00
              MO Center=  5.8D-01, -1.4D+00,  1.7D-01, r^2= 6.5D-01
   Bfn.  Coefficient  Atom+Function         Bfn.  Coefficient  Atom+Function  
  ----- ------------  ---------------      ----- ------------  ---------------
    26      0.442462   4 O  s                27      0.396875   4 O  s         
    39      0.184432   5 H  s                44      0.168713   6 H  s         

 Vector    6  Occ=2.000000D+00  E=-1.345920D+00
              MO Center= -6.6D-01,  8.7D-01, -9.7D-01, r^2= 7.7D-01
   Bfn.  Coefficient  Atom+Function         Bfn.  Coefficient  Atom+Function  
  ----- ------------  ---------------      ----- ------------  ---------------
     2      0.436260   1 O  s                 3      0.387144   1 O  s         
    15      0.180770   2 H  s                20      0.178868   3 H  s         

 Vector    7  Occ=2.000000D+00  E=-1.307931D+00
              MO Center=  2.9D+00,  7.6D-02,  4.1D-01, r^2= 5.8D-01
   Bfn.  Coefficient  Atom+Function         Bfn.  Coefficient  Atom+Function  
  ----- ------------  ---------------      ----- ------------  ---------------
    50      0.441126   7 O  s                51      0.389310   7 O  s         
    63      0.190871   8 H  s                68      0.177269   9 H  s         

 Vector    8  Occ=2.000000D+00  E=-1.296424D+00
              MO Center= -2.8D+00,  4.1D-01,  4.4D-01, r^2= 7.1D-01
   Bfn.  Coefficient  Atom+Function         Bfn.  Coefficient  Atom+Function  
  ----- ------------  ---------------      ----- ------------  ---------------
    74      0.437509  10 O  s                75      0.389332  10 O  s         
    92      0.189860  12 H  s                87      0.171346  11 H  s         

 Vector    9  Occ=2.000000D+00  E=-7.522586D-01
              MO Center=  5.7D-01, -1.4D+00,  2.0D-01, r^2= 1.0D+00
   Bfn.  Coefficient  Atom+Function         Bfn.  Coefficient  Atom+Function  
  ----- ------------  ---------------      ----- ------------  ---------------
    29      0.419359   4 O  py               39     -0.331278   5 H  s         
    44      0.285684   6 H  s                30      0.236788   4 O  pz        
    32      0.203478   4 O  py        

 Vector   10  Occ=2.000000D+00  E=-7.012798D-01
              MO Center= -5.2D-01,  7.9D-01, -9.3D-01, r^2= 1.1D+00
   Bfn.  Coefficient  Atom+Function         Bfn.  Coefficient  Atom+Function  
  ----- ------------  ---------------      ----- ------------  ---------------
     5      0.453154   1 O  py               15      0.306975   2 H  s         
    20     -0.306453   3 H  s                 8      0.220001   1 O  py        
     6      0.157409   1 O  pz        

 Vector   11  Occ=2.000000D+00  E=-6.893596D-01
              MO Center=  2.3D+00, -2.7D-01,  3.4D-01, r^2= 2.4D+00
   Bfn.  Coefficient  Atom+Function         Bfn.  Coefficient  Atom+Function  
  ----- ------------  ---------------      ----- ------------  ---------------
    52      0.348627   7 O  px               68     -0.284118   9 H  s         
    63      0.270354   8 H  s                28     -0.218082   4 O  px        
    54      0.186521   7 O  pz               55      0.160684   7 O  px        

 Vector   12  Occ=2.000000D+00  E=-6.743072D-01
              MO Center= -2.6D+00,  4.8D-01,  3.0D-01, r^2= 1.8D+00
   Bfn.  Coefficient  Atom+Function         Bfn.  Coefficient  Atom+Function  
  ----- ------------  ---------------      ----- ------------  ---------------
    76      0.402397  10 O  px               87      0.301500  11 H  s         
    92     -0.301392  12 H  s                78     -0.206167  10 O  pz        
    79      0.189087  10 O  px                4     -0.153096   1 O  px        

 Vector   13  Occ=2.000000D+00  E=-6.176630D-01
              MO Center=  9.2D-01, -7.9D-01,  2.6D-02, r^2= 2.9D+00
   Bfn.  Coefficient  Atom+Function         Bfn.  Coefficient  Atom+Function  
  ----- ------------  ---------------      ----- ------------  ---------------
    30      0.334247   4 O  pz               27     -0.276710   4 O  s         
    29     -0.260734   4 O  py               33      0.226401   4 O  pz        
    28     -0.184391   4 O  px               52     -0.184488   7 O  px        
    44      0.174503   6 H  s                32     -0.173230   4 O  py        
    63     -0.168976   8 H  s                39      0.160738   5 H  s         

 Vector   14  Occ=2.000000D+00  E=-5.888809D-01
              MO Center= -3.1D-01,  4.2D-01, -6.3D-01, r^2= 3.7D+00
   Bfn.  Coefficient  Atom+Function         Bfn.  Coefficient  Atom+Function  
  ----- ------------  ---------------      ----- ------------  ---------------
     4      0.357570   1 O  px                3     -0.272704   1 O  s         
    28     -0.246889   4 O  px                6      0.233001   1 O  pz        
     7      0.233328   1 O  px               31     -0.186768   4 O  px        
    15      0.179447   2 H  s                 9      0.156236   1 O  pz        
    20      0.152032   3 H  s         

 Vector   15  Occ=2.000000D+00  E=-5.600314D-01
              MO Center=  8.7D-01, -3.7D-01,  2.7D-02, r^2= 4.6D+00
   Bfn.  Coefficient  Atom+Function         Bfn.  Coefficient  Atom+Function  
  ----- ------------  ---------------      ----- ------------  ---------------
    28      0.288320   4 O  px               30      0.277608   4 O  pz        
    53     -0.248960   7 O  py               31      0.231728   4 O  px        
    33      0.209684   4 O  pz               51     -0.206862   7 O  s         
     4      0.202428   1 O  px               56     -0.170985   7 O  py        
    54      0.159802   7 O  pz        

 Vector   16  Occ=2.000000D+00  E=-5.395876D-01
              MO Center= -1.9D+00,  4.1D-01,  1.5D-01, r^2= 3.8D+00
   Bfn.  Coefficient  Atom+Function         Bfn.  Coefficient  Atom+Function  
  ----- ------------  ---------------      ----- ------------  ---------------
    77      0.355065  10 O  py               75     -0.282982  10 O  s         
     6      0.274828   1 O  pz               78     -0.249027  10 O  pz        
    80      0.245620  10 O  py                9      0.207376   1 O  pz        
    92      0.193610  12 H  s                81     -0.176893  10 O  pz        

 Vector   17  Occ=2.000000D+00  E=-5.274321D-01
              MO Center=  1.8D+00, -3.3D-01,  2.0D-01, r^2= 3.3D+00
   Bfn.  Coefficient  Atom+Function         Bfn.  Coefficient  Atom+Function  
  ----- ------------  ---------------      ----- ------------  ---------------
    53      0.405780   7 O  py               28      0.356943   4 O  px        
    56      0.286144   7 O  py               31      0.272579   4 O  px        
    51      0.206258   7 O  s                68     -0.181832   9 H  s         
    30      0.178747   4 O  pz        

 Vector   18  Occ=2.000000D+00  E=-4.935737D-01
              MO Center= -1.2D+00,  7.7D-01, -6.7D-01, r^2= 2.1D+00
   Bfn.  Coefficient  Atom+Function         Bfn.  Coefficient  Atom+Function  
  ----- ------------  ---------------      ----- ------------  ---------------
     6      0.418150   1 O  pz                4     -0.334515   1 O  px        
     9      0.332953   1 O  pz               78      0.254071  10 O  pz        
     7     -0.250575   1 O  px               81      0.183417  10 O  pz        

 Vector   19  Occ=2.000000D+00  E=-4.717354D-01
              MO Center=  2.9D+00,  2.1D-01,  3.4D-01, r^2= 6.4D-01
   Bfn.  Coefficient  Atom+Function         Bfn.  Coefficient  Atom+Function  
  ----- ------------  ---------------      ----- ------------  ---------------
    54      0.480652   7 O  pz               57      0.382454   7 O  pz        
    52     -0.338703   7 O  px               55     -0.276126   7 O  px        
    53      0.214141   7 O  py               56      0.169101   7 O  py        

 Vector   20  Occ=2.000000D+00  E=-4.619853D-01
              MO Center= -2.8D+00,  2.9D-01,  5.5D-01, r^2= 6.8D-01
   Bfn.  Coefficient  Atom+Function         Bfn.  Coefficient  Atom+Function  
  ----- ------------  ---------------      ----- ------------  ---------------
    77      0.395275  10 O  py               78      0.394308  10 O  pz        
    80      0.318179  10 O  py               81      0.316692  10 O  pz        
    76      0.276729  10 O  px               79      0.223707  10 O  px        

 Vector   21  Occ=0.000000D+00  E= 1.394053D-01
              MO Center=  3.7D-01, -1.2D+00,  3.7D-01, r^2= 5.3D+00
   Bfn.  Coefficient  Atom+Function         Bfn.  Coefficient  Atom+Function  
  ----- ------------  ---------------      ----- ------------  ---------------
    27      0.833680   4 O  s                40     -0.731027   5 H  s         
    45     -0.594044   6 H  s                16     -0.351944   2 H  s         
    64     -0.305079   8 H  s                 3      0.297552   1 O  s         
    51      0.252980   7 O  s                75      0.177115  10 O  s         
    93     -0.175657  12 H  s                32     -0.153896   4 O  py        

 Vector   22  Occ=0.000000D+00  E= 2.012301D-01
              MO Center= -7.2D-01, -1.7D-01, -1.2D-03, r^2= 9.0D+00
   Bfn.  Coefficient  Atom+Function         Bfn.  Coefficient  Atom+Function  
  ----- ------------  ---------------      ----- ------------  ---------------
    40      1.001295   5 H  s                16     -0.814727   2 H  s         
    93     -0.649423  12 H  s                 3      0.499944   1 O  s         
    75      0.439324  10 O  s                27     -0.367427   4 O  s         
    45     -0.344973   6 H  s                32      0.341843   4 O  py        
    29      0.174302   4 O  py                9      0.172777   1 O  pz        

 Vector   23  Occ=0.000000D+00  E= 2.178364D-01
              MO Center=  2.3D+00, -1.2D-01,  9.3D-01, r^2= 9.9D+00
   Bfn.  Coefficient  Atom+Function         Bfn.  Coefficient  Atom+Function  
  ----- ------------  ---------------      ----- ------------  ---------------
    64      1.246276   8 H  s                51     -0.798075   7 O  s         
    93     -0.505018  12 H  s                75      0.370930  10 O  s         
    57     -0.252311   7 O  pz               55     -0.248981   7 O  px        
    40     -0.247485   5 H  s                27      0.207043   4 O  s         
    56      0.172042   7 O  py               45     -0.160085   6 H  s         

 Vector   24  Occ=0.000000D+00  E= 2.337118D-01
              MO Center=  8.4D-02, -3.2D-01,  3.7D-01, r^2= 5.5D+00
   Bfn.  Coefficient  Atom+Function         Bfn.  Coefficient  Atom+Function  
  ----- ------------  ---------------      ----- ------------  ---------------
    45      1.325551   6 H  s                40     -0.788699   5 H  s         
    16     -0.753968   2 H  s                 3      0.620018   1 O  s         
    33     -0.383476   4 O  pz               21     -0.333165   3 H  s         
    32     -0.295444   4 O  py               64      0.215705   8 H  s         
    30     -0.201995   4 O  pz                7      0.195152   1 O  px        

 Vector   25  Occ=0.000000D+00  E= 2.389914D-01
              MO Center= -1.7D+00,  6.0D-01,  5.5D-01, r^2= 1.1D+01
   Bfn.  Coefficient  Atom+Function         Bfn.  Coefficient  Atom+Function  
  ----- ------------  ---------------      ----- ------------  ---------------
    93      1.138593  12 H  s                75     -0.625331  10 O  s         
    16     -0.598751   2 H  s                45     -0.599282   6 H  s         
    64      0.542389   8 H  s                40      0.435888   5 H  s         
    79      0.297643  10 O  px               51     -0.265067   7 O  s         
     3      0.256060   1 O  s                80     -0.204819  10 O  py        

 Vector   26  Occ=0.000000D+00  E= 3.124545D-01
              MO Center= -2.4D-01, -3.7D-02, -9.9D-01, r^2= 3.9D+00
   Bfn.  Coefficient  Atom+Function         Bfn.  Coefficient  Atom+Function  
  ----- ------------  ---------------      ----- ------------  ---------------
    21      1.727201   3 H  s                16     -1.014308   2 H  s         
     8      0.601902   1 O  py                3     -0.457840   1 O  s         
    40     -0.457796   5 H  s                32     -0.315020   4 O  py        
     5      0.259740   1 O  py               69      0.260856   9 H  s         
    93     -0.240497  12 H  s                88      0.210832  11 H  s         

 Vector   27  Occ=0.000000D+00  E= 3.687160D-01
              MO Center=  1.1D+00, -2.9D-01,  1.1D-01, r^2= 7.9D+00
   Bfn.  Coefficient  Atom+Function         Bfn.  Coefficient  Atom+Function  
  ----- ------------  ---------------      ----- ------------  ---------------
    69      1.784898   9 H  s                88     -1.010053  11 H  s         
    64     -0.879219   8 H  s                93      0.536545  12 H  s         
    55      0.481974   7 O  px               51     -0.479384   7 O  s         
    40     -0.299357   5 H  s                79      0.280559  10 O  px        
    56      0.270211   7 O  py               31     -0.260760   4 O  px        

 Vector   28  Occ=0.000000D+00  E= 4.104427D-01
              MO Center= -1.0D+00,  3.3D-01, -2.3D-01, r^2= 7.4D+00
   Bfn.  Coefficient  Atom+Function         Bfn.  Coefficient  Atom+Function  
  ----- ------------  ---------------      ----- ------------  ---------------
    88      1.885473  11 H  s                69      1.073177   9 H  s         
    93     -0.787218  12 H  s                21     -0.701587   3 H  s         
    75     -0.548385  10 O  s                79     -0.487632  10 O  px        
    64     -0.431111   8 H  s                 7      0.369606   1 O  px        
    81      0.354949  10 O  pz               51     -0.322469   7 O  s         

 Vector   29  Occ=0.000000D+00  E= 7.052781D-01
              MO Center=  2.4D-01, -7.5D-01, -8.0D-02, r^2= 3.5D+00
   Bfn.  Coefficient  Atom+Function         Bfn.  Coefficient  Atom+Function  
  ----- ------------  ---------------      ----- ------------  ---------------
    44      0.827952   6 H  s                39     -0.742558   5 H  s         
    45     -0.624972   6 H  s                15      0.509510   2 H  s         
    21      0.506146   3 H  s                40      0.459567   5 H  s         
    20     -0.436088   3 H  s                32     -0.430364   4 O  py        
    16     -0.292177   2 H  s                69      0.264182   9 H  s         

 Vector   30  Occ=0.000000D+00  E= 7.520529D-01
              MO Center= -1.2D-01,  2.9D-01, -1.5D-01, r^2= 5.3D+00
   Bfn.  Coefficient  Atom+Function         Bfn.  Coefficient  Atom+Function  
  ----- ------------  ---------------      ----- ------------  ---------------
    15      0.733488   2 H  s                69     -0.542810   9 H  s         
    16     -0.539461   2 H  s                44     -0.541069   6 H  s         
    20     -0.527438   3 H  s                68      0.477403   9 H  s         
    45      0.432389   6 H  s                21      0.423692   3 H  s         
    92      0.396135  12 H  s                87     -0.342556  11 H  s         


 center of mass
 --------------
 x =  -0.00405019 y =   0.02339094 z =  -0.02414084

 moments of inertia (a.u.)
 ------------------
         309.168986797011         123.136564682653         -22.694280146715
         123.136564682653        1221.469213360974          60.536552281638
         -22.694280146715          60.536552281638        1312.570517320058

  Mulliken analysis of the total density
  --------------------------------------

    Atom       Charge   Shell Charges
 -----------   ------   -------------------------------------------------------
    1 O    8     8.34   2.00  0.83  0.84  2.82  1.83  0.01
    2 H    1     0.82   0.67  0.07  0.08
    3 H    1     0.81   0.65  0.07  0.08
    4 O    8     8.33   2.00  0.83  0.85  2.82  1.82  0.01
    5 H    1     0.81   0.67  0.06  0.08
    6 H    1     0.79   0.64  0.07  0.08
    7 O    8     8.38   2.00  0.83  0.84  2.82  1.87  0.01
    8 H    1     0.85   0.69  0.08  0.08
    9 H    1     0.81   0.64  0.09  0.09
   10 O    8     8.40   2.00  0.83  0.84  2.82  1.89  0.01
   11 H    1     0.81   0.63  0.09  0.09
   12 H    1     0.85   0.69  0.08  0.08

       Multipole analysis of the density wrt the origin
       ------------------------------------------------

     L   x y z        total         open         nuclear
     -   - - -        -----         ----         -------
     0   0 0 0     -0.000000      0.000000     40.000000

     1   1 0 0      0.209950      0.000000     -0.000000
     1   0 1 0     -0.982670      0.000000      0.000000
     1   0 0 1      0.682879      0.000000      0.000000

     2   2 0 0    -20.997795      0.000000    619.643638
     2   1 1 0     -5.748571      0.000000    -74.920033
     2   1 0 1      3.274845      0.000000     16.210457
     2   0 2 0    -13.182268      0.000000    117.903808
     2   0 1 1      0.234878      0.000000    -33.416237
     2   0 0 2    -20.009781      0.000000     60.779910


 Parallel integral file used     111 records with       0 large values

                              NWChem Gradients Module
                              -----------------------



  wavefunction    =   RHF     



                         RHF ENERGY GRADIENTS

    atom               coordinates                        gradient
                 x          y          z           x          y          z
   1 O      -1.408313   1.806264  -2.103159   -0.031239   0.004065  -0.017401
   2 H      -0.361939   2.858211  -1.010641    0.014809   0.013518   0.018420
   3 H      -0.554753   0.179513  -2.010043    0.010363  -0.020008   0.003529
   4 O       1.231354  -2.555036   0.169359    0.028000   0.006296  -0.035528
   5 H       0.962762  -4.355302   0.061098   -0.000326  -0.018437  -0.002410
   6 H       0.310702  -1.984188   1.708671   -0.019288   0.016978   0.036824
   7 O       5.455443   0.445058   0.626248    0.005569   0.028807  -0.010614
   8 H       6.686299  -0.212141   1.801118    0.014423  -0.007424   0.013774
   9 H       4.221255  -0.925368   0.408519   -0.025575  -0.026002  -0.002941
  10 O      -5.315268   0.516154   1.088302   -0.001452  -0.019141   0.018310
  11 H      -4.185646   1.146536  -0.250209    0.022214   0.009785  -0.022886
  12 H      -6.784406   1.593224   1.045488   -0.017499   0.011563   0.000922

                 ----------------------------------------
                 |  Time  |  1-e(secs)   |  2-e(secs)   |
                 ----------------------------------------
                 |  CPU   |       0.01   |       1.16   |
                 ----------------------------------------
                 |  WALL  |       0.01   |       1.16   |
                 ----------------------------------------

 Task  times  cpu:        3.6s     wall:        3.6s


                                NWChem Input Module
                                -------------------


 Summary of allocated global arrays
-----------------------------------
  No active global arrays



                         GA Statistics for process    0
                         ------------------------------

       create   destroy   get      put      acc     scatter   gather  read&inc
calls:  268      268     1.11e+04 5682     4684        0        0      166     
number of processes/call 0.00e+00 0.00e+00 0.00e+00 0.00e+00 0.00e+00
bytes total:             2.58e+07 1.54e+07 3.80e+06 0.00e+00 0.00e+00 1.33e+03
bytes remote:            0.00e+00 0.00e+00 0.00e+00 0.00e+00 0.00e+00 0.00e+00
Max memory consumed for GA by this process: 958464 bytes

MA_summarize_allocated_blocks: starting scan ...
MA_summarize_allocated_blocks: scan completed: 0 heap blocks, 0 stack blocks
MA usage statistics:

	allocation statistics:
					      heap	     stack
					      ----	     -----
	current number of blocks	         0	         0
	maximum number of blocks	        18	        28
	current total bytes		         0	         0
	maximum total bytes		 177770832	  26178744
	maximum total K-bytes		    177771	     26179
	maximum total M-bytes		       178	        27


                                     CITATION
                                     --------
                Please cite the following reference when publishing
                           results obtained with NWChem:

          E. Aprà, E. J. Bylaska, W. A. de Jong, N. Govind, K. Kowalski,
       T. P. Straatsma, M. Valiev, H. J. J. van Dam, Y. Alexeev, J. Anchell,
       V. Anisimov, F. W. Aquino, R. Atta-Fynn, J. Autschbach, N. P. Bauman,
     J. C. Becca, D. E. Bernholdt, K. Bhaskaran-Nair, S. Bogatko, P. Borowski,
        J. Boschen, J. Brabec, A. Bruner, E. Cauët, Y. Chen, G. N. Chuev,
      C. J. Cramer, J. Daily, M. J. O. Deegan, T. H. Dunning Jr., M. Dupuis,
   K. G. Dyall, G. I. Fann, S. A. Fischer, A. Fonari, H. Früchtl, L. Gagliardi,
      J. Garza, N. Gawande, S. Ghosh, K. Glaesemann, A. W. Götz, J. Hammond,
       V. Helms, E. D. Hermes, K. Hirao, S. Hirata, M. Jacquelin, L. Jensen,
   B. G. Johnson, H. Jónsson, R. A. Kendall, M. Klemm, R. Kobayashi, V. Konkov,
      S. Krishnamoorthy, M. Krishnan, Z. Lin, R. D. Lins, R. J. Littlefield,
      A. J. Logsdail, K. Lopata, W. Ma, A. V. Marenich, J. Martin del Campo,
   D. Mejia-Rodriguez, J. E. Moore, J. M. Mullin, T. Nakajima, D. R. Nascimento,
    J. A. Nichols, P. J. Nichols, J. Nieplocha, A. Otero-de-la-Roza, B. Palmer,
    A. Panyala, T. Pirojsirikul, B. Peng, R. Peverati, J. Pittner, L. Pollack,
   R. M. Richard, P. Sadayappan, G. C. Schatz, W. A. Shelton, D. W. Silverstein,
   D. M. A. Smith, T. A. Soares, D. Song, M. Swart, H. L. Taylor, G. S. Thomas,
            V. Tipparaju, D. G. Truhlar, K. Tsemekhman, T. Van Voorhis,
     Á. Vázquez-Mayagoitia, P. Verma, O. Villa, A. Vishnu, K. D. Vogiatzis,
        D. Wang, J. H. Weare, M. J. Williamson, T. L. Windus, K. Woliński,
        A. T. Wong, Q. Wu, C. Yang, Q. Yu, M. Zacharias, Z. Zhang, Y. Zhao,
                                and R. J. Harrison
                        "NWChem: Past, present, and future
                         J. Chem. Phys. 152, 184102 (2020)
                               doi:10.1063/5.0004997

                                      AUTHORS
                                      -------
     E. Apra, E. J. Bylaska, N. Govind, K. Kowalski, M. Valiev, W. A. de Jong,
      T. P. Straatsma, H. J. J. van Dam, D. Wang, T. L. Windus, N. P. Bauman,
       A. Panyala, J. Hammond, J. Autschbach, K. Bhaskaran-Nair, J. Brabec,
    K. Lopata, S. A. Fischer, S. Krishnamoorthy, M. Jacquelin, W. Ma, M. Klemm,
       O. Villa, Y. Chen, V. Anisimov, F. Aquino, S. Hirata, M. T. Hackler,
           Eric Hermes, L. Jensen, J. E. Moore, J. C. Becca, V. Konjkov,
            D. Mejia-Rodriguez, T. Risthaus, M. Malagoli, A. Marenich,
   A. Otero-de-la-Roza, J. Mullin, P. Nichols, R. Peverati, J. Pittner, Y. Zhao,
        P.-D. Fan, A. Fonari, M. J. Williamson, R. J. Harrison, J. R. Rehr,
      M. Dupuis, D. Silverstein, D. M. A. Smith, J. Nieplocha, V. Tipparaju,
      M. Krishnan, B. E. Van Kuiken, A. Vazquez-Mayagoitia, M. Swart, Q. Wu,
   T. Van Voorhis, A. A. Auer, M. Nooijen, L. D. Crosby, E. Brown, G. Cisneros,
     G. I. Fann, H. Fruchtl, J. Garza, K. Hirao, R. A. Kendall, J. A. Nichols,
       K. Tsemekhman, K. Wolinski, J. Anchell, D. E. Bernholdt, P. Borowski,
       T. Clark, D. Clerc, H. Dachsel, M. J. O. Deegan, K. Dyall, D. Elwood,
      E. Glendening, M. Gutowski, A. C. Hess, J. Jaffe, B. G. Johnson, J. Ju,
        R. Kobayashi, R. Kutteh, Z. Lin, R. Littlefield, X. Long, B. Meng,
      T. Nakajima, S. Niu, L. Pollack, M. Rosing, K. Glaesemann, G. Sandrone,
      M. Stave, H. Taylor, G. Thomas, J. H. van Lenthe, A. T. Wong, Z. Zhang.

 Total times  cpu:        3.6s     wall:        3.6s
