 argument  1 = nwchem/input_4_6_at_worker_5.nw



============================== echo of input deck ==============================
echo
memory 1000 mb
geometry noautosym noautoz
O 0.87715956 1.70409266 0.47858616
H 1.70199937 1.19722607 0.29220265
H 1.16181787 2.60891668 0.65546661
O -0.82054445 0.61636011 -1.6312343
H -0.26682713 1.17302621 -1.05309865
H -0.36885969 -0.24447946 -1.58195952
O 2.81159896 -0.10395953 -0.18689424
H 3.46294039 -0.4517338 0.43482057
H 2.1584952 -0.82915775 -0.30211113
O -2.88801599 -0.0663369 0.05761427
H -2.29024563 0.26724676 -0.65069518
H -3.66545029 0.50362404 0.03495814
end
basis spherical
 * library cc-pvdz
end
task scf gradient
================================================================================


                                         
                                         


             Northwest Computational Chemistry Package (NWChem) 7.0.2
             --------------------------------------------------------


                    Environmental Molecular Sciences Laboratory
                       Pacific Northwest National Laboratory
                                Richland, WA 99352

                              Copyright (c) 1994-2020
                       Pacific Northwest National Laboratory
                            Battelle Memorial Institute

             NWChem is an open-source computational chemistry package
                        distributed under the terms of the
                      Educational Community License (ECL) 2.0
             A copy of the license is included with this distribution
                              in the LICENSE.TXT file

                                  ACKNOWLEDGMENT
                                  --------------

            This software and its documentation were developed at the
            EMSL at Pacific Northwest National Laboratory, a multiprogram
            national laboratory, operated for the U.S. Department of Energy
            by Battelle under Contract Number DE-AC05-76RL01830. Support
            for this work was provided by the Department of Energy Office
            of Biological and Environmental Research, Office of Basic
            Energy Sciences, and the Office of Advanced Scientific Computing.


           Job information
           ---------------

    hostname        = pop-os
    program         = nwchem
    date            = Thu Jul  8 18:22:35 2021

    compiled        = Wed_Jan_06_19:48:08_2021
    source          = /build/nwchem-ksKH2r/nwchem-7.0.2
    nwchem branch   = 7.0.2
    nwchem revision = N/A
    ga revision     = 5.7.1
    use scalapack   = T
    input           = nwchem/input_4_6_at_worker_5.nw
    prefix          = input_4_6_at_worker_5.
    data base       = ./input_4_6_at_worker_5.db
    status          = startup
    nproc           =        1
    time left       =     -1s



           Memory information
           ------------------

    heap     =   32767996 doubles =    250.0 Mbytes
    stack    =   32768001 doubles =    250.0 Mbytes
    global   =   65536000 doubles =    500.0 Mbytes (distinct from heap & stack)
    total    =  131071997 doubles =   1000.0 Mbytes
    verify   = yes
    hardfail = no 


           Directory information
           ---------------------

  0 permanent = .
  0 scratch   = .




                                NWChem Input Module
                                -------------------



 Scaling coordinates for geometry "geometry" by  1.889725989
 (inverse scale =  0.529177249)



                             Geometry "geometry" -> ""
                             -------------------------

 Output coordinates in angstroms (scale by  1.889725989 to convert to a.u.)

  No.       Tag          Charge          X              Y              Z
 ---- ---------------- ---------- -------------- -------------- --------------
    1 O                    8.0000     0.83377319     1.16844467     0.78923219
    2 H                    1.0000     1.65861300     0.66157808     0.60284868
    3 H                    1.0000     1.11843150     2.07326869     0.96611264
    4 O                    8.0000    -0.86393082     0.08071212    -1.32058827
    5 H                    1.0000    -0.31021350     0.63737822    -0.74245262
    6 H                    1.0000    -0.41224606    -0.78012745    -1.27131349
    7 O                    8.0000     2.76821259    -0.63960752     0.12375179
    8 H                    1.0000     3.41955402    -0.98738179     0.74546660
    9 H                    1.0000     2.11510883    -1.36480574     0.00853490
   10 O                    8.0000    -2.93140236    -0.60198489     0.36826030
   11 H                    1.0000    -2.33363200    -0.26840123    -0.34004915
   12 H                    1.0000    -3.70883666    -0.03202395     0.34560417

      Atomic Mass 
      ----------- 

      O                 15.994910
      H                  1.007825


 Effective nuclear repulsion energy (a.u.)     128.6463241842

            Nuclear Dipole moment (a.u.) 
            ----------------------------
        X                 Y               Z
 ---------------- ---------------- ----------------
    -0.0000000000    -0.0000000000     0.0000000000


            XYZ format geometry
            -------------------
    12
 geometry
 O                     0.83377319     1.16844467     0.78923219
 H                     1.65861300     0.66157808     0.60284868
 H                     1.11843150     2.07326869     0.96611264
 O                    -0.86393082     0.08071212    -1.32058827
 H                    -0.31021350     0.63737822    -0.74245262
 H                    -0.41224606    -0.78012745    -1.27131349
 O                     2.76821259    -0.63960752     0.12375179
 H                     3.41955402    -0.98738179     0.74546660
 H                     2.11510883    -1.36480574     0.00853490
 O                    -2.93140236    -0.60198489     0.36826030
 H                    -2.33363200    -0.26840123    -0.34004915
 H                    -3.70883666    -0.03202395     0.34560417

 ==============================================================================
                                internuclear distances
 ------------------------------------------------------------------------------
       center one      |      center two      | atomic units |  angstroms
 ------------------------------------------------------------------------------
    2 H                |   1 O                |     1.86309  |     0.98591
    3 H                |   1 O                |     1.82339  |     0.96490
    5 H                |   4 O                |     1.84258  |     0.97505
    6 H                |   4 O                |     1.83944  |     0.97339
    8 H                |   7 O                |     1.82407  |     0.96526
    9 H                |   7 O                |     1.85707  |     0.98272
   11 H                |  10 O                |     1.86146  |     0.98504
   12 H                |  10 O                |     1.82216  |     0.96425
 ------------------------------------------------------------------------------
                         number of included internuclear distances:          8
 ==============================================================================



 ==============================================================================
                                 internuclear angles
 ------------------------------------------------------------------------------
        center 1       |       center 2       |       center 3       |  degrees
 ------------------------------------------------------------------------------
    2 H                |   1 O                |   3 H                |   105.66
    5 H                |   4 O                |   6 H                |   102.20
    8 H                |   7 O                |   9 H                |   104.96
   11 H                |  10 O                |  12 H                |   105.80
 ------------------------------------------------------------------------------
                            number of included internuclear angles:          4
 ==============================================================================





 Summary of "ao basis" -> "" (spherical)
 ------------------------------------------------------------------------------
       Tag                 Description            Shells   Functions and Types
 ---------------- ------------------------------  ------  ---------------------
 *                          cc-pvdz                   on all atoms 


                      Basis "ao basis" -> "ao basis" (spherical)
                      -----
  O (Oxygen)
  ----------
            Exponent  Coefficients 
       -------------- ---------------------------------------------------------
  1 S  1.17200000E+04  0.000710
  1 S  1.75900000E+03  0.005470
  1 S  4.00800000E+02  0.027837
  1 S  1.13700000E+02  0.104800
  1 S  3.70300000E+01  0.283062
  1 S  1.32700000E+01  0.448719
  1 S  5.02500000E+00  0.270952
  1 S  1.01300000E+00  0.015458

  2 S  1.17200000E+04 -0.000160
  2 S  1.75900000E+03 -0.001263
  2 S  4.00800000E+02 -0.006267
  2 S  1.13700000E+02 -0.025716
  2 S  3.70300000E+01 -0.070924
  2 S  1.32700000E+01 -0.165411
  2 S  5.02500000E+00 -0.116955
  2 S  1.01300000E+00  0.557368

  3 S  3.02300000E-01  1.000000

  4 P  1.77000000E+01  0.043018
  4 P  3.85400000E+00  0.228913
  4 P  1.04600000E+00  0.508728

  5 P  2.75300000E-01  1.000000

  6 D  1.18500000E+00  1.000000

  H (Hydrogen)
  ------------
            Exponent  Coefficients 
       -------------- ---------------------------------------------------------
  1 S  1.30100000E+01  0.019685
  1 S  1.96200000E+00  0.137977
  1 S  4.44600000E-01  0.478148

  2 S  1.22000000E-01  1.000000

  3 P  7.27000000E-01  1.000000



 Summary of "ao basis" -> "ao basis" (spherical)
 ------------------------------------------------------------------------------
       Tag                 Description            Shells   Functions and Types
 ---------------- ------------------------------  ------  ---------------------
 O                          cc-pvdz                  6       14   3s2p1d
 H                          cc-pvdz                  3        5   2s1p


                                 NWChem SCF Module
                                 -----------------



  ao basis        = "ao basis"
  functions       =    96
  atoms           =    12
  closed shells   =    20
  open shells     =     0
  charge          =   0.00
  wavefunction    = RHF 
  input vectors   = atomic
  output vectors  = ./input_4_6_at_worker_5.movecs
  use symmetry    = F
  symmetry adapt  = F


 Summary of "ao basis" -> "ao basis" (spherical)
 ------------------------------------------------------------------------------
       Tag                 Description            Shells   Functions and Types
 ---------------- ------------------------------  ------  ---------------------
 O                          cc-pvdz                  6       14   3s2p1d
 H                          cc-pvdz                  3        5   2s1p



 Forming initial guess at       0.0s


      Superposition of Atomic Density Guess
      -------------------------------------

 Sum of atomic energies:        -303.04891642

      Non-variational initial energy
      ------------------------------

 Total energy =    -303.747081
 1-e energy   =    -671.054036
 2-e energy   =     238.660632
 HOMO         =      -0.461363
 LUMO         =       0.042170


 Starting SCF solution at       0.4s



 ----------------------------------------------
         Quadratically convergent ROHF

 Convergence threshold     :          1.000E-04
 Maximum no. of iterations :           30
 Final Fock-matrix accuracy:          1.000E-07
 ----------------------------------------------


 Integral file          = ./input_4_6_at_worker_5.aoints.0
 Record size in doubles =  65536        No. of integs per rec  =  43688
 Max. records in memory =    339        Max. records in file   = 400164
 No. of bits per label  =      8        No. of bits per value  =     64


 #quartets = 4.127D+05 #integrals = 4.651D+06 #direct =  0.0% #cached =100.0%


              iter       energy          gnorm     gmax       time
             ----- ------------------- --------- --------- --------
                 1     -304.0074859712  1.53D+00  2.18D-01      1.6
                 2     -304.1176508797  3.37D-01  7.44D-02      1.8
                 3     -304.1268250925  2.81D-02  4.34D-03      2.0
                 4     -304.1268964014  5.33D-04  1.02D-04      2.3
                 5     -304.1268964237  2.67D-06  5.01D-07      2.7


       Final RHF  results 
       ------------------ 

         Total SCF energy =   -304.126896423729
      One-electron energy =   -676.400063031677
      Two-electron energy =    243.626842423712
 Nuclear repulsion energy =    128.646324184236

        Time for solution =      2.3s


             Final eigenvalues
             -----------------

              1      
    1  -20.6081
    2  -20.5526
    3  -20.5519
    4  -20.4969
    5   -1.3855
    6   -1.3370
    7   -1.3272
    8   -1.2767
    9   -0.7478
   10   -0.7073
   11   -0.6899
   12   -0.6550
   13   -0.6206
   14   -0.5856
   15   -0.5619
   16   -0.5340
   17   -0.5212
   18   -0.4930
   19   -0.4789
   20   -0.4418
   21    0.1312
   22    0.1925
   23    0.2063
   24    0.2355
   25    0.2776
   26    0.3418
   27    0.3822
   28    0.4220
   29    0.7222
   30    0.7335

                       ROHF Final Molecular Orbital Analysis
                       -------------------------------------

 Vector    5  Occ=2.000000D+00  E=-1.385534D+00
              MO Center=  2.7D+00, -7.3D-01,  2.1D-01, r^2= 6.6D-01
   Bfn.  Coefficient  Atom+Function         Bfn.  Coefficient  Atom+Function  
  ----- ------------  ---------------      ----- ------------  ---------------
    50      0.440766   7 O  s                51      0.388359   7 O  s         
    63      0.184532   8 H  s                68      0.177149   9 H  s         

 Vector    6  Occ=2.000000D+00  E=-1.337027D+00
              MO Center= -1.5D-01,  4.2D-01, -5.2D-01, r^2= 2.5D+00
   Bfn.  Coefficient  Atom+Function         Bfn.  Coefficient  Atom+Function  
  ----- ------------  ---------------      ----- ------------  ---------------
    26      0.354485   4 O  s                27      0.309794   4 O  s         
     2      0.256870   1 O  s                 3      0.228725   1 O  s         

 Vector    7  Occ=2.000000D+00  E=-1.327234D+00
              MO Center=  3.9D-01,  7.9D-01,  9.1D-02, r^2= 2.6D+00
   Bfn.  Coefficient  Atom+Function         Bfn.  Coefficient  Atom+Function  
  ----- ------------  ---------------      ----- ------------  ---------------
     2      0.356427   1 O  s                 3      0.319049   1 O  s         
    26     -0.259998   4 O  s                27     -0.236163   4 O  s         
    20      0.153460   3 H  s         

 Vector    8  Occ=2.000000D+00  E=-1.276750D+00
              MO Center= -2.9D+00, -4.7D-01,  2.4D-01, r^2= 6.7D-01
   Bfn.  Coefficient  Atom+Function         Bfn.  Coefficient  Atom+Function  
  ----- ------------  ---------------      ----- ------------  ---------------
    74      0.438790  10 O  s                75      0.389355  10 O  s         
    92      0.190973  12 H  s                87      0.172377  11 H  s         

 Vector    9  Occ=2.000000D+00  E=-7.477532D-01
              MO Center=  2.7D+00, -7.2D-01,  2.5D-01, r^2= 1.2D+00
   Bfn.  Coefficient  Atom+Function         Bfn.  Coefficient  Atom+Function  
  ----- ------------  ---------------      ----- ------------  ---------------
    52      0.416604   7 O  px               63      0.325789   8 H  s         
    68     -0.290604   9 H  s                54      0.226593   7 O  pz        
    55      0.200900   7 O  px        

 Vector   10  Occ=2.000000D+00  E=-7.072795D-01
              MO Center=  1.3D+00,  8.8D-01,  6.3D-01, r^2= 1.9D+00
   Bfn.  Coefficient  Atom+Function         Bfn.  Coefficient  Atom+Function  
  ----- ------------  ---------------      ----- ------------  ---------------
     5      0.394644   1 O  py               20      0.289319   3 H  s         
    15     -0.281527   2 H  s                53     -0.196158   7 O  py        
     8      0.184726   1 O  py                4     -0.150207   1 O  px        

 Vector   11  Occ=2.000000D+00  E=-6.898767D-01
              MO Center= -5.9D-01,  6.8D-02, -1.1D+00, r^2= 1.3D+00
   Bfn.  Coefficient  Atom+Function         Bfn.  Coefficient  Atom+Function  
  ----- ------------  ---------------      ----- ------------  ---------------
    29      0.443123   4 O  py               39      0.306802   5 H  s         
    44     -0.302903   6 H  s                32      0.213551   4 O  py        
    30      0.171206   4 O  pz        

 Vector   12  Occ=2.000000D+00  E=-6.550324D-01
              MO Center= -2.7D+00, -3.8D-01,  6.6D-02, r^2= 1.4D+00
   Bfn.  Coefficient  Atom+Function         Bfn.  Coefficient  Atom+Function  
  ----- ------------  ---------------      ----- ------------  ---------------
    76      0.401190  10 O  px               87      0.303585  11 H  s         
    92     -0.301792  12 H  s                78     -0.207685  10 O  pz        
    79      0.186362  10 O  px               28     -0.161892   4 O  px        

 Vector   13  Occ=2.000000D+00  E=-6.206235D-01
              MO Center=  2.3D+00, -2.6D-01,  2.0D-01, r^2= 2.1D+00
   Bfn.  Coefficient  Atom+Function         Bfn.  Coefficient  Atom+Function  
  ----- ------------  ---------------      ----- ------------  ---------------
    53      0.441086   7 O  py               51      0.305416   7 O  s         
    56      0.287417   7 O  py               54     -0.211781   7 O  pz        
     5      0.195604   1 O  py               63     -0.185145   8 H  s         
    68     -0.180414   9 H  s                20      0.154293   3 H  s         

 Vector   14  Occ=2.000000D+00  E=-5.856302D-01
              MO Center=  8.1D-02,  2.7D-01, -4.3D-01, r^2= 4.1D+00
   Bfn.  Coefficient  Atom+Function         Bfn.  Coefficient  Atom+Function  
  ----- ------------  ---------------      ----- ------------  ---------------
     4      0.287020   1 O  px               28     -0.287628   4 O  px        
    27      0.259771   4 O  s                 7      0.195981   1 O  px        
    30     -0.186540   4 O  pz               31     -0.185945   4 O  px        
    54      0.185733   7 O  pz               44     -0.179154   6 H  s         
     3     -0.159510   1 O  s                29      0.151683   4 O  py        

 Vector   15  Occ=2.000000D+00  E=-5.618976D-01
              MO Center=  4.8D-01,  2.3D-01, -1.6D-01, r^2= 4.8D+00
   Bfn.  Coefficient  Atom+Function         Bfn.  Coefficient  Atom+Function  
  ----- ------------  ---------------      ----- ------------  ---------------
    28      0.288058   4 O  px               54      0.268833   7 O  pz        
     4      0.258403   1 O  px                3     -0.215513   1 O  s         
    57      0.204204   7 O  pz               31      0.195125   4 O  px        
     5      0.172668   1 O  py                7      0.172170   1 O  px        
    27     -0.172104   4 O  s                30      0.168573   4 O  pz        

 Vector   16  Occ=2.000000D+00  E=-5.340348D-01
              MO Center=  1.9D+00, -1.1D-01,  3.1D-01, r^2= 3.2D+00
   Bfn.  Coefficient  Atom+Function         Bfn.  Coefficient  Atom+Function  
  ----- ------------  ---------------      ----- ------------  ---------------
    54      0.365471   7 O  pz                4     -0.312511   1 O  px        
    57      0.291168   7 O  pz               52     -0.279125   7 O  px        
    53      0.234391   7 O  py                7     -0.217180   1 O  px        
    55     -0.218266   7 O  px               56      0.173310   7 O  py        

 Vector   17  Occ=2.000000D+00  E=-5.212324D-01
              MO Center= -2.2D+00, -3.7D-01, -4.8D-02, r^2= 2.9D+00
   Bfn.  Coefficient  Atom+Function         Bfn.  Coefficient  Atom+Function  
  ----- ------------  ---------------      ----- ------------  ---------------
    77      0.357430  10 O  py               30      0.288093   4 O  pz        
    75     -0.288744  10 O  s                80      0.246217  10 O  py        
    78     -0.241543  10 O  pz               33      0.220476   4 O  pz        
    92      0.203585  12 H  s                81     -0.172535  10 O  pz        

 Vector   18  Occ=2.000000D+00  E=-4.930115D-01
              MO Center=  7.4D-01,  1.1D+00,  6.3D-01, r^2= 1.2D+00
   Bfn.  Coefficient  Atom+Function         Bfn.  Coefficient  Atom+Function  
  ----- ------------  ---------------      ----- ------------  ---------------
     6      0.586463   1 O  pz                9      0.465084   1 O  pz        
    30      0.156695   4 O  pz        

 Vector   19  Occ=2.000000D+00  E=-4.789257D-01
              MO Center= -1.4D+00, -1.2D-01, -7.6D-01, r^2= 2.4D+00
   Bfn.  Coefficient  Atom+Function         Bfn.  Coefficient  Atom+Function  
  ----- ------------  ---------------      ----- ------------  ---------------
    30      0.388654   4 O  pz               28     -0.336905   4 O  px        
    33      0.312339   4 O  pz               78      0.262983  10 O  pz        
    31     -0.253848   4 O  px               81      0.188845  10 O  pz        
    77     -0.179827  10 O  py        

 Vector   20  Occ=2.000000D+00  E=-4.418297D-01
              MO Center= -2.9D+00, -5.8D-01,  3.4D-01, r^2= 6.5D-01
   Bfn.  Coefficient  Atom+Function         Bfn.  Coefficient  Atom+Function  
  ----- ------------  ---------------      ----- ------------  ---------------
    78      0.400234  10 O  pz               77      0.391376  10 O  py        
    81      0.320546  10 O  pz               80      0.314810  10 O  py        
    76      0.276900  10 O  px               79      0.223463  10 O  px        

 Vector   21  Occ=0.000000D+00  E= 1.312496D-01
              MO Center=  1.8D+00, -9.7D-01,  1.6D-02, r^2= 5.2D+00
   Bfn.  Coefficient  Atom+Function         Bfn.  Coefficient  Atom+Function  
  ----- ------------  ---------------      ----- ------------  ---------------
    51      0.786439   7 O  s                69     -0.776721   9 H  s         
    45     -0.526915   6 H  s                64     -0.513715   8 H  s         
    27      0.339687   4 O  s                21     -0.328592   3 H  s         
    56     -0.260831   7 O  py                3      0.251753   1 O  s         

 Vector   22  Occ=0.000000D+00  E= 1.925367D-01
              MO Center=  2.1D+00, -9.8D-01,  2.0D-01, r^2= 7.8D+00
   Bfn.  Coefficient  Atom+Function         Bfn.  Coefficient  Atom+Function  
  ----- ------------  ---------------      ----- ------------  ---------------
    64      1.274030   8 H  s                45     -0.729539   6 H  s         
    69     -0.528586   9 H  s                51     -0.449131   7 O  s         
    27      0.440841   4 O  s                55     -0.351111   7 O  px        
    57     -0.265626   7 O  pz               93     -0.233522  12 H  s         
    32     -0.212528   4 O  py               75      0.180490  10 O  s         

 Vector   23  Occ=0.000000D+00  E= 2.062737D-01
              MO Center=  1.1D+00,  1.7D+00,  7.8D-01, r^2= 4.6D+00
   Bfn.  Coefficient  Atom+Function         Bfn.  Coefficient  Atom+Function  
  ----- ------------  ---------------      ----- ------------  ---------------
    21      1.269792   3 H  s                 3     -0.821948   1 O  s         
    69     -0.433004   9 H  s                 8     -0.360397   1 O  py        
    51      0.270020   7 O  s                40      0.247183   5 H  s         
    45     -0.188168   6 H  s                 5     -0.176256   1 O  py        

 Vector   24  Occ=0.000000D+00  E= 2.355172D-01
              MO Center= -2.7D+00, -4.5D-03,  3.2D-01, r^2= 8.4D+00
   Bfn.  Coefficient  Atom+Function         Bfn.  Coefficient  Atom+Function  
  ----- ------------  ---------------      ----- ------------  ---------------
    93      1.256152  12 H  s                75     -0.802490  10 O  s         
    69     -0.539945   9 H  s                64      0.486141   8 H  s         
    21     -0.310723   3 H  s                79      0.294418  10 O  px        
    80     -0.256575  10 O  py               55     -0.202712   7 O  px        
    27     -0.187419   4 O  s                40      0.181477   5 H  s         

 Vector   25  Occ=0.000000D+00  E= 2.776266D-01
              MO Center=  1.6D-01, -9.3D-01, -4.2D-01, r^2= 8.5D+00
   Bfn.  Coefficient  Atom+Function         Bfn.  Coefficient  Atom+Function  
  ----- ------------  ---------------      ----- ------------  ---------------
    69      1.155760   9 H  s                45     -0.988142   6 H  s         
    27      0.677637   4 O  s                64     -0.651003   8 H  s         
    93      0.630606  12 H  s                55      0.350189   7 O  px        
    21      0.265501   3 H  s                32     -0.250433   4 O  py        
    75     -0.245706  10 O  s                16     -0.221134   2 H  s         

 Vector   26  Occ=0.000000D+00  E= 3.417513D-01
              MO Center=  1.3D-01,  6.9D-01, -3.2D-01, r^2= 5.4D+00
   Bfn.  Coefficient  Atom+Function         Bfn.  Coefficient  Atom+Function  
  ----- ------------  ---------------      ----- ------------  ---------------
    40      1.432508   5 H  s                45     -0.987148   6 H  s         
    16      0.855387   2 H  s                21     -0.828951   3 H  s         
    32     -0.458586   4 O  py                8      0.408867   1 O  py        
    88      0.361821  11 H  s                27     -0.330026   4 O  s         
    64     -0.301578   8 H  s                93     -0.297606  12 H  s         

 Vector   27  Occ=0.000000D+00  E= 3.821845D-01
              MO Center=  1.1D+00,  5.9D-01,  3.6D-01, r^2= 5.7D+00
   Bfn.  Coefficient  Atom+Function         Bfn.  Coefficient  Atom+Function  
  ----- ------------  ---------------      ----- ------------  ---------------
    16      1.946590   2 H  s                40     -0.893438   5 H  s         
    21     -0.637053   3 H  s                88     -0.566206  11 H  s         
     3     -0.542576   1 O  s                45      0.471438   6 H  s         
     7     -0.444358   1 O  px                8      0.391192   1 O  py        
    69     -0.384443   9 H  s                27      0.357828   4 O  s         

 Vector   28  Occ=0.000000D+00  E= 4.219616D-01
              MO Center= -1.8D+00, -1.9D-02, -4.9D-01, r^2= 4.9D+00
   Bfn.  Coefficient  Atom+Function         Bfn.  Coefficient  Atom+Function  
  ----- ------------  ---------------      ----- ------------  ---------------
    88      2.047351  11 H  s                40     -1.015686   5 H  s         
    93     -0.863917  12 H  s                75     -0.607674  10 O  s         
    79     -0.509643  10 O  px               16      0.488336   2 H  s         
    31      0.431965   4 O  px               81      0.382067  10 O  pz        
    28      0.235797   4 O  px               27      0.220855   4 O  s         

 Vector   29  Occ=0.000000D+00  E= 7.221724D-01
              MO Center=  2.4D+00, -6.2D-01,  2.7D-01, r^2= 3.1D+00
   Bfn.  Coefficient  Atom+Function         Bfn.  Coefficient  Atom+Function  
  ----- ------------  ---------------      ----- ------------  ---------------
    68      0.912489   9 H  s                63     -0.818674   8 H  s         
    69     -0.714730   9 H  s                64      0.580349   8 H  s         
    16      0.413040   2 H  s                55      0.414518   7 O  px        
    15     -0.284969   2 H  s                20     -0.241833   3 H  s         
    39      0.225432   5 H  s                40     -0.222049   5 H  s         

 Vector   30  Occ=0.000000D+00  E= 7.334861D-01
              MO Center= -6.4D-03,  3.9D-01, -4.5D-01, r^2= 3.8D+00
   Bfn.  Coefficient  Atom+Function         Bfn.  Coefficient  Atom+Function  
  ----- ------------  ---------------      ----- ------------  ---------------
    44      0.802180   6 H  s                40      0.726931   5 H  s         
    39     -0.635415   5 H  s                15      0.610544   2 H  s         
    16     -0.603887   2 H  s                45     -0.543883   6 H  s         
    20     -0.517992   3 H  s                21      0.328577   3 H  s         
     8      0.316294   1 O  py               32      0.313310   4 O  py        


 center of mass
 --------------
 x =  -0.04022996 y =   0.00157393 z =  -0.00818633

 moments of inertia (a.u.)
 ------------------
         312.715468194866         -44.211479515166         -78.320754665198
         -44.211479515166        1312.527682829018         -37.510886085966
         -78.320754665198         -37.510886085966        1306.999842853550

  Mulliken analysis of the total density
  --------------------------------------

    Atom       Charge   Shell Charges
 -----------   ------   -------------------------------------------------------
    1 O    8     8.37   2.00  0.83  0.84  2.83  1.86  0.01
    2 H    1     0.80   0.63  0.09  0.09
    3 H    1     0.83   0.68  0.07  0.08
    4 O    8     8.34   2.00  0.83  0.84  2.82  1.83  0.01
    5 H    1     0.81   0.64  0.09  0.09
    6 H    1     0.84   0.68  0.08  0.08
    7 O    8     8.32   2.00  0.83  0.84  2.82  1.81  0.01
    8 H    1     0.82   0.67  0.06  0.08
    9 H    1     0.81   0.66  0.07  0.08
   10 O    8     8.39   2.00  0.83  0.84  2.82  1.89  0.01
   11 H    1     0.81   0.63  0.09  0.09
   12 H    1     0.86   0.69  0.08  0.08

       Multipole analysis of the density wrt the origin
       ------------------------------------------------

     L   x y z        total         open         nuclear
     -   - - -        -----         ----         -------
     0   0 0 0     -0.000000      0.000000     40.000000

     1   1 0 0      1.904311      0.000000     -0.000000
     1   0 1 0     -0.070503      0.000000     -0.000000
     1   0 0 1      0.247280      0.000000      0.000000

     2   2 0 0    -14.344353      0.000000    647.140445
     2   1 1 0     -5.883815      0.000000     18.607471
     2   1 0 1      4.380535      0.000000     47.887007
     2   0 2 0    -13.687004      0.000000     92.161130
     2   0 1 1      1.668254      0.000000     22.750804
     2   0 0 2    -21.615445      0.000000     87.124366


 Parallel integral file used     107 records with       0 large values

                              NWChem Gradients Module
                              -----------------------



  wavefunction    =   RHF     



                         RHF ENERGY GRADIENTS

    atom               coordinates                        gradient
                 x          y          z           x          y          z
   1 O       1.575603   2.208040   1.491433   -0.029064  -0.005123   0.004227
   2 H       3.134324   1.250201   1.139219    0.026511  -0.019607  -0.008017
   3 H       2.113529   3.917910   1.825688    0.005889   0.019385   0.004219
   4 O      -1.632593   0.152524  -2.495550   -0.032521   0.011539  -0.009742
   5 H      -0.586219   1.204470  -1.403032    0.013606   0.009568   0.008706
   6 H      -0.779032  -1.474227  -2.402434    0.015468  -0.023484   0.003732
   7 O       5.231163  -1.208683   0.233857    0.007924   0.035599  -0.006197
   8 H       6.462020  -1.865881   1.408728    0.013183  -0.005703   0.012269
   9 H       3.996976  -2.579109   0.016129   -0.025880  -0.024123  -0.005053
  10 O      -5.539547  -1.137586   0.695911    0.001227  -0.019177   0.019686
  11 H      -4.409925  -0.507205  -0.642600    0.021578   0.009842  -0.025081
  12 H      -7.008685  -0.060516   0.653097   -0.017919   0.011284   0.001250

                 ----------------------------------------
                 |  Time  |  1-e(secs)   |  2-e(secs)   |
                 ----------------------------------------
                 |  CPU   |       0.02   |       1.37   |
                 ----------------------------------------
                 |  WALL  |       0.02   |       1.37   |
                 ----------------------------------------

 Task  times  cpu:        4.1s     wall:        4.2s


                                NWChem Input Module
                                -------------------


 Summary of allocated global arrays
-----------------------------------
  No active global arrays



                         GA Statistics for process    0
                         ------------------------------

       create   destroy   get      put      acc     scatter   gather  read&inc
calls:  268      268     1.11e+04 5689     4684        0        0      166     
number of processes/call 0.00e+00 0.00e+00 0.00e+00 0.00e+00 0.00e+00
bytes total:             2.58e+07 1.54e+07 3.80e+06 0.00e+00 0.00e+00 1.33e+03
bytes remote:            0.00e+00 0.00e+00 0.00e+00 0.00e+00 0.00e+00 0.00e+00
Max memory consumed for GA by this process: 958464 bytes

MA_summarize_allocated_blocks: starting scan ...
MA_summarize_allocated_blocks: scan completed: 0 heap blocks, 0 stack blocks
MA usage statistics:

	allocation statistics:
					      heap	     stack
					      ----	     -----
	current number of blocks	         0	         0
	maximum number of blocks	        18	        28
	current total bytes		         0	         0
	maximum total bytes		 177770848	  26178728
	maximum total K-bytes		    177771	     26179
	maximum total M-bytes		       178	        27


                                     CITATION
                                     --------
                Please cite the following reference when publishing
                           results obtained with NWChem:

          E. Aprà, E. J. Bylaska, W. A. de Jong, N. Govind, K. Kowalski,
       T. P. Straatsma, M. Valiev, H. J. J. van Dam, Y. Alexeev, J. Anchell,
       V. Anisimov, F. W. Aquino, R. Atta-Fynn, J. Autschbach, N. P. Bauman,
     J. C. Becca, D. E. Bernholdt, K. Bhaskaran-Nair, S. Bogatko, P. Borowski,
        J. Boschen, J. Brabec, A. Bruner, E. Cauët, Y. Chen, G. N. Chuev,
      C. J. Cramer, J. Daily, M. J. O. Deegan, T. H. Dunning Jr., M. Dupuis,
   K. G. Dyall, G. I. Fann, S. A. Fischer, A. Fonari, H. Früchtl, L. Gagliardi,
      J. Garza, N. Gawande, S. Ghosh, K. Glaesemann, A. W. Götz, J. Hammond,
       V. Helms, E. D. Hermes, K. Hirao, S. Hirata, M. Jacquelin, L. Jensen,
   B. G. Johnson, H. Jónsson, R. A. Kendall, M. Klemm, R. Kobayashi, V. Konkov,
      S. Krishnamoorthy, M. Krishnan, Z. Lin, R. D. Lins, R. J. Littlefield,
      A. J. Logsdail, K. Lopata, W. Ma, A. V. Marenich, J. Martin del Campo,
   D. Mejia-Rodriguez, J. E. Moore, J. M. Mullin, T. Nakajima, D. R. Nascimento,
    J. A. Nichols, P. J. Nichols, J. Nieplocha, A. Otero-de-la-Roza, B. Palmer,
    A. Panyala, T. Pirojsirikul, B. Peng, R. Peverati, J. Pittner, L. Pollack,
   R. M. Richard, P. Sadayappan, G. C. Schatz, W. A. Shelton, D. W. Silverstein,
   D. M. A. Smith, T. A. Soares, D. Song, M. Swart, H. L. Taylor, G. S. Thomas,
            V. Tipparaju, D. G. Truhlar, K. Tsemekhman, T. Van Voorhis,
     Á. Vázquez-Mayagoitia, P. Verma, O. Villa, A. Vishnu, K. D. Vogiatzis,
        D. Wang, J. H. Weare, M. J. Williamson, T. L. Windus, K. Woliński,
        A. T. Wong, Q. Wu, C. Yang, Q. Yu, M. Zacharias, Z. Zhang, Y. Zhao,
                                and R. J. Harrison
                        "NWChem: Past, present, and future
                         J. Chem. Phys. 152, 184102 (2020)
                               doi:10.1063/5.0004997

                                      AUTHORS
                                      -------
     E. Apra, E. J. Bylaska, N. Govind, K. Kowalski, M. Valiev, W. A. de Jong,
      T. P. Straatsma, H. J. J. van Dam, D. Wang, T. L. Windus, N. P. Bauman,
       A. Panyala, J. Hammond, J. Autschbach, K. Bhaskaran-Nair, J. Brabec,
    K. Lopata, S. A. Fischer, S. Krishnamoorthy, M. Jacquelin, W. Ma, M. Klemm,
       O. Villa, Y. Chen, V. Anisimov, F. Aquino, S. Hirata, M. T. Hackler,
           Eric Hermes, L. Jensen, J. E. Moore, J. C. Becca, V. Konjkov,
            D. Mejia-Rodriguez, T. Risthaus, M. Malagoli, A. Marenich,
   A. Otero-de-la-Roza, J. Mullin, P. Nichols, R. Peverati, J. Pittner, Y. Zhao,
        P.-D. Fan, A. Fonari, M. J. Williamson, R. J. Harrison, J. R. Rehr,
      M. Dupuis, D. Silverstein, D. M. A. Smith, J. Nieplocha, V. Tipparaju,
      M. Krishnan, B. E. Van Kuiken, A. Vazquez-Mayagoitia, M. Swart, Q. Wu,
   T. Van Voorhis, A. A. Auer, M. Nooijen, L. D. Crosby, E. Brown, G. Cisneros,
     G. I. Fann, H. Fruchtl, J. Garza, K. Hirao, R. A. Kendall, J. A. Nichols,
       K. Tsemekhman, K. Wolinski, J. Anchell, D. E. Bernholdt, P. Borowski,
       T. Clark, D. Clerc, H. Dachsel, M. J. O. Deegan, K. Dyall, D. Elwood,
      E. Glendening, M. Gutowski, A. C. Hess, J. Jaffe, B. G. Johnson, J. Ju,
        R. Kobayashi, R. Kutteh, Z. Lin, R. Littlefield, X. Long, B. Meng,
      T. Nakajima, S. Niu, L. Pollack, M. Rosing, K. Glaesemann, G. Sandrone,
      M. Stave, H. Taylor, G. Thomas, J. H. van Lenthe, A. T. Wong, Z. Zhang.

 Total times  cpu:        4.1s     wall:        4.2s
