 argument  1 = nwchem/input_3_4_1.nw



============================== echo of input deck ==============================
echo
memory 1000 mb
geometry noautosym noautoz
O 0.87715956 1.70409266 0.47858616
H 1.70199937 1.19722607 0.29220265
H 1.16181787 2.60891668 0.65546661
O -0.82054445 0.61636011 -1.6312343
H -0.26682713 1.17302621 -1.05309865
H -0.36885969 -0.24447946 -1.58195952
O -2.88801599 -0.0663369 0.05761427
H -2.29024563 0.26724676 -0.65069518
H -3.66545029 0.50362404 0.03495814
end
basis spherical
 * library cc-pvdz
end
task scf gradient
================================================================================


                                         
                                         


             Northwest Computational Chemistry Package (NWChem) 7.0.2
             --------------------------------------------------------


                    Environmental Molecular Sciences Laboratory
                       Pacific Northwest National Laboratory
                                Richland, WA 99352

                              Copyright (c) 1994-2020
                       Pacific Northwest National Laboratory
                            Battelle Memorial Institute

             NWChem is an open-source computational chemistry package
                        distributed under the terms of the
                      Educational Community License (ECL) 2.0
             A copy of the license is included with this distribution
                              in the LICENSE.TXT file

                                  ACKNOWLEDGMENT
                                  --------------

            This software and its documentation were developed at the
            EMSL at Pacific Northwest National Laboratory, a multiprogram
            national laboratory, operated for the U.S. Department of Energy
            by Battelle under Contract Number DE-AC05-76RL01830. Support
            for this work was provided by the Department of Energy Office
            of Biological and Environmental Research, Office of Basic
            Energy Sciences, and the Office of Advanced Scientific Computing.


           Job information
           ---------------

    hostname        = pop-os
    program         = nwchem
    date            = Tue Jul  6 14:10:21 2021

    compiled        = Wed_Jan_06_19:48:08_2021
    source          = /build/nwchem-ksKH2r/nwchem-7.0.2
    nwchem branch   = 7.0.2
    nwchem revision = N/A
    ga revision     = 5.7.1
    use scalapack   = T
    input           = nwchem/input_3_4_1.nw
    prefix          = input_3_4_1.
    data base       = ./input_3_4_1.db
    status          = startup
    nproc           =        1
    time left       =     -1s



           Memory information
           ------------------

    heap     =   32767994 doubles =    250.0 Mbytes
    stack    =   32767999 doubles =    250.0 Mbytes
    global   =   65536000 doubles =    500.0 Mbytes (distinct from heap & stack)
    total    =  131071993 doubles =   1000.0 Mbytes
    verify   = yes
    hardfail = no 


           Directory information
           ---------------------

  0 permanent = .
  0 scratch   = .




                                NWChem Input Module
                                -------------------



 Scaling coordinates for geometry "geometry" by  1.889725989
 (inverse scale =  0.529177249)



                             Geometry "geometry" -> ""
                             -------------------------

 Output coordinates in angstroms (scale by  1.889725989 to convert to a.u.)

  No.       Tag          Charge          X              Y              Z
 ---- ---------------- ---------- -------------- -------------- --------------
    1 O                    8.0000     1.75645198     0.91947642     0.84736606
    2 H                    1.0000     2.58129179     0.41260983     0.66098255
    3 H                    1.0000     2.04111029     1.82430044     1.02424651
    4 O                    8.0000     0.05874797    -0.16825613    -1.26245440
    5 H                    1.0000     0.61246529     0.38840997    -0.68431875
    6 H                    1.0000     0.51043273    -1.02909570    -1.21317962
    7 O                    8.0000    -2.00872357    -0.85095314     0.42639417
    8 H                    1.0000    -1.41095321    -0.51736948    -0.28191528
    9 H                    1.0000    -2.78615787    -0.28099220     0.40373804

      Atomic Mass 
      ----------- 

      O                 15.994910
      H                  1.007825


 Effective nuclear repulsion energy (a.u.)      77.2094322845

            Nuclear Dipole moment (a.u.) 
            ----------------------------
        X                 Y               Z
 ---------------- ---------------- ----------------
    -0.0000000000    -0.0000000000     0.0000000000


            XYZ format geometry
            -------------------
     9
 geometry
 O                     1.75645198     0.91947642     0.84736606
 H                     2.58129179     0.41260983     0.66098255
 H                     2.04111029     1.82430044     1.02424651
 O                     0.05874797    -0.16825613    -1.26245440
 H                     0.61246529     0.38840997    -0.68431875
 H                     0.51043273    -1.02909570    -1.21317962
 O                    -2.00872357    -0.85095314     0.42639417
 H                    -1.41095321    -0.51736948    -0.28191528
 H                    -2.78615787    -0.28099220     0.40373804

 ==============================================================================
                                internuclear distances
 ------------------------------------------------------------------------------
       center one      |      center two      | atomic units |  angstroms
 ------------------------------------------------------------------------------
    2 H                |   1 O                |     1.86309  |     0.98591
    3 H                |   1 O                |     1.82339  |     0.96490
    5 H                |   4 O                |     1.84258  |     0.97505
    6 H                |   4 O                |     1.83944  |     0.97339
    8 H                |   7 O                |     1.86146  |     0.98504
    9 H                |   7 O                |     1.82216  |     0.96425
 ------------------------------------------------------------------------------
                         number of included internuclear distances:          6
 ==============================================================================



 ==============================================================================
                                 internuclear angles
 ------------------------------------------------------------------------------
        center 1       |       center 2       |       center 3       |  degrees
 ------------------------------------------------------------------------------
    2 H                |   1 O                |   3 H                |   105.66
    5 H                |   4 O                |   6 H                |   102.20
    8 H                |   7 O                |   9 H                |   105.80
 ------------------------------------------------------------------------------
                            number of included internuclear angles:          3
 ==============================================================================





 Summary of "ao basis" -> "" (spherical)
 ------------------------------------------------------------------------------
       Tag                 Description            Shells   Functions and Types
 ---------------- ------------------------------  ------  ---------------------
 *                          cc-pvdz                   on all atoms 


                      Basis "ao basis" -> "ao basis" (spherical)
                      -----
  O (Oxygen)
  ----------
            Exponent  Coefficients 
       -------------- ---------------------------------------------------------
  1 S  1.17200000E+04  0.000710
  1 S  1.75900000E+03  0.005470
  1 S  4.00800000E+02  0.027837
  1 S  1.13700000E+02  0.104800
  1 S  3.70300000E+01  0.283062
  1 S  1.32700000E+01  0.448719
  1 S  5.02500000E+00  0.270952
  1 S  1.01300000E+00  0.015458

  2 S  1.17200000E+04 -0.000160
  2 S  1.75900000E+03 -0.001263
  2 S  4.00800000E+02 -0.006267
  2 S  1.13700000E+02 -0.025716
  2 S  3.70300000E+01 -0.070924
  2 S  1.32700000E+01 -0.165411
  2 S  5.02500000E+00 -0.116955
  2 S  1.01300000E+00  0.557368

  3 S  3.02300000E-01  1.000000

  4 P  1.77000000E+01  0.043018
  4 P  3.85400000E+00  0.228913
  4 P  1.04600000E+00  0.508728

  5 P  2.75300000E-01  1.000000

  6 D  1.18500000E+00  1.000000

  H (Hydrogen)
  ------------
            Exponent  Coefficients 
       -------------- ---------------------------------------------------------
  1 S  1.30100000E+01  0.019685
  1 S  1.96200000E+00  0.137977
  1 S  4.44600000E-01  0.478148

  2 S  1.22000000E-01  1.000000

  3 P  7.27000000E-01  1.000000



 Summary of "ao basis" -> "ao basis" (spherical)
 ------------------------------------------------------------------------------
       Tag                 Description            Shells   Functions and Types
 ---------------- ------------------------------  ------  ---------------------
 O                          cc-pvdz                  6       14   3s2p1d
 H                          cc-pvdz                  3        5   2s1p


                                 NWChem SCF Module
                                 -----------------



  ao basis        = "ao basis"
  functions       =    72
  atoms           =     9
  closed shells   =    15
  open shells     =     0
  charge          =   0.00
  wavefunction    = RHF 
  input vectors   = atomic
  output vectors  = ./input_3_4_1.movecs
  use symmetry    = F
  symmetry adapt  = F


 Summary of "ao basis" -> "ao basis" (spherical)
 ------------------------------------------------------------------------------
       Tag                 Description            Shells   Functions and Types
 ---------------- ------------------------------  ------  ---------------------
 O                          cc-pvdz                  6       14   3s2p1d
 H                          cc-pvdz                  3        5   2s1p



 Forming initial guess at       0.0s


      Superposition of Atomic Density Guess
      -------------------------------------

 Sum of atomic energies:        -227.28668731

      Non-variational initial energy
      ------------------------------

 Total energy =    -227.781589
 1-e energy   =    -464.747420
 2-e energy   =     159.756398
 HOMO         =      -0.461467
 LUMO         =       0.056213


 Starting SCF solution at       0.3s



 ----------------------------------------------
         Quadratically convergent ROHF

 Convergence threshold     :          1.000E-04
 Maximum no. of iterations :           30
 Final Fock-matrix accuracy:          1.000E-07
 ----------------------------------------------


 Integral file          = ./input_3_4_1.aoints.0
 Record size in doubles =  65536        No. of integs per rec  =  43688
 Max. records in memory =    110        Max. records in file   = 400585
 No. of bits per label  =      8        No. of bits per value  =     64


 #quartets = 1.630D+05 #integrals = 2.045D+06 #direct =  0.0% #cached =100.0%


              iter       energy          gnorm     gmax       time
             ----- ------------------- --------- --------- --------
                 1     -227.9992962544  1.35D+00  2.91D-01      0.8
                 2     -228.0849581043  2.95D-01  7.13D-02      0.9
                 3     -228.0919226191  2.51D-02  4.24D-03      1.0
                 4     -228.0919780469  4.70D-04  1.03D-04      1.2
                 5     -228.0919780636  9.85D-06  2.09D-06      1.3


       Final RHF  results 
       ------------------ 

         Total SCF energy =   -228.091978063614
      One-electron energy =   -468.840248822831
      Two-electron energy =    163.538838474737
 Nuclear repulsion energy =     77.209432284480

        Time for solution =      1.1s


             Final eigenvalues
             -----------------

              1      
    1  -20.5940
    2  -20.5579
    3  -20.4989
    4   -1.3681
    5   -1.3381
    6   -1.2788
    7   -0.7317
    8   -0.6961
    9   -0.6574
   10   -0.6071
   11   -0.5745
   12   -0.5288
   13   -0.5228
   14   -0.4833
   15   -0.4438
   16    0.1472
   17    0.2079
   18    0.2292
   19    0.2492
   20    0.3363
   21    0.4150
   22    0.7181
   23    0.7776
   24    0.8108
   25    0.8191

                       ROHF Final Molecular Orbital Analysis
                       -------------------------------------

 Vector    4  Occ=2.000000D+00  E=-1.368134D+00
              MO Center=  1.9D+00,  9.5D-01,  7.9D-01, r^2= 7.1D-01
   Bfn.  Coefficient  Atom+Function         Bfn.  Coefficient  Atom+Function  
  ----- ------------  ---------------      ----- ------------  ---------------
     2      0.440074  1 O  s                  3      0.386977  1 O  s          
    20      0.185853  3 H  s                 15      0.175946  2 H  s          

 Vector    5  Occ=2.000000D+00  E=-1.338088D+00
              MO Center=  1.9D-01, -1.9D-01, -1.1D+00, r^2= 8.4D-01
   Bfn.  Coefficient  Atom+Function         Bfn.  Coefficient  Atom+Function  
  ----- ------------  ---------------      ----- ------------  ---------------
    26      0.434918  4 O  s                 27      0.385658  4 O  s          
    44      0.182814  6 H  s                 39      0.175658  5 H  s          

 Vector    6  Occ=2.000000D+00  E=-1.278829D+00
              MO Center= -2.0D+00, -7.2D-01,  3.1D-01, r^2= 6.5D-01
   Bfn.  Coefficient  Atom+Function         Bfn.  Coefficient  Atom+Function  
  ----- ------------  ---------------      ----- ------------  ---------------
    50      0.439249  7 O  s                 51      0.389530  7 O  s          
    68      0.191115  9 H  s                 63      0.172850  8 H  s          

 Vector    7  Occ=2.000000D+00  E=-7.317003D-01
              MO Center=  1.9D+00,  9.8D-01,  8.2D-01, r^2= 8.7D-01
   Bfn.  Coefficient  Atom+Function         Bfn.  Coefficient  Atom+Function  
  ----- ------------  ---------------      ----- ------------  ---------------
     5      0.450945  1 O  py                20      0.329378  3 H  s          
    15     -0.308570  2 H  s                  8      0.211479  1 O  py         

 Vector    8  Occ=2.000000D+00  E=-6.961031D-01
              MO Center=  3.2D-01, -1.6D-01, -1.0D+00, r^2= 1.2D+00
   Bfn.  Coefficient  Atom+Function         Bfn.  Coefficient  Atom+Function  
  ----- ------------  ---------------      ----- ------------  ---------------
    29      0.441184  4 O  py                39      0.309930  5 H  s          
    44     -0.300143  6 H  s                 32      0.212205  4 O  py         
    30      0.172155  4 O  pz         

 Vector    9  Occ=2.000000D+00  E=-6.573597D-01
              MO Center= -1.8D+00, -6.3D-01,  1.2D-01, r^2= 1.4D+00
   Bfn.  Coefficient  Atom+Function         Bfn.  Coefficient  Atom+Function  
  ----- ------------  ---------------      ----- ------------  ---------------
    52      0.399746  7 O  px                63      0.303584  8 H  s          
    68     -0.300818  9 H  s                 54     -0.207329  7 O  pz         
    55      0.185177  7 O  px                28     -0.166908  4 O  px         

 Vector   10  Occ=2.000000D+00  E=-6.071165D-01
              MO Center=  1.3D+00,  6.2D-01,  3.5D-01, r^2= 2.4D+00
   Bfn.  Coefficient  Atom+Function         Bfn.  Coefficient  Atom+Function  
  ----- ------------  ---------------      ----- ------------  ---------------
     4      0.453808  1 O  px                 7      0.299313  1 O  px         
     3     -0.286531  1 O  s                 15      0.193826  2 H  s          
    27      0.182494  4 O  s                 20      0.162831  3 H  s          
    29      0.159959  4 O  py                28     -0.156450  4 O  px         

 Vector   11  Occ=2.000000D+00  E=-5.745068D-01
              MO Center=  3.3D-01,  8.5D-02, -5.5D-01, r^2= 3.0D+00
   Bfn.  Coefficient  Atom+Function         Bfn.  Coefficient  Atom+Function  
  ----- ------------  ---------------      ----- ------------  ---------------
    28      0.368773  4 O  px                27     -0.257430  4 O  s          
    31      0.245232  4 O  px                30      0.228601  4 O  pz         
     4      0.216360  1 O  px                39      0.172094  5 H  s          
     3     -0.170223  1 O  s                 33      0.156781  4 O  pz         
    44      0.156781  6 H  s                  6     -0.154756  1 O  pz         

 Vector   12  Occ=2.000000D+00  E=-5.288176D-01
              MO Center=  8.1D-01,  4.5D-01,  6.0D-01, r^2= 4.0D+00
   Bfn.  Coefficient  Atom+Function         Bfn.  Coefficient  Atom+Function  
  ----- ------------  ---------------      ----- ------------  ---------------
     6      0.517347  1 O  pz                 9      0.402660  1 O  pz         
    53     -0.195032  7 O  py                51      0.165378  7 O  s          
    28      0.152998  4 O  px         

 Vector   13  Occ=2.000000D+00  E=-5.227996D-01
              MO Center= -5.9D-01, -2.8D-01, -1.9D-02, r^2= 4.2D+00
   Bfn.  Coefficient  Atom+Function         Bfn.  Coefficient  Atom+Function  
  ----- ------------  ---------------      ----- ------------  ---------------
    30      0.328980  4 O  pz                53      0.302312  7 O  py         
     6      0.277933  1 O  pz                33      0.250256  4 O  pz         
    51     -0.245075  7 O  s                  9      0.214317  1 O  pz         
    56      0.208177  7 O  py                54     -0.197978  7 O  pz         
    68      0.173082  9 H  s          

 Vector   14  Occ=2.000000D+00  E=-4.832536D-01
              MO Center= -6.0D-01, -4.0D-01, -6.8D-01, r^2= 2.3D+00
   Bfn.  Coefficient  Atom+Function         Bfn.  Coefficient  Atom+Function  
  ----- ------------  ---------------      ----- ------------  ---------------
    30      0.388654  4 O  pz                28     -0.328864  4 O  px         
    33      0.312212  4 O  pz                54      0.271700  7 O  pz         
    31     -0.247749  4 O  px                57      0.194785  7 O  pz         
    53     -0.193544  7 O  py                63     -0.153293  8 H  s          

 Vector   15  Occ=2.000000D+00  E=-4.438163D-01
              MO Center= -2.0D+00, -8.3D-01,  4.0D-01, r^2= 6.5D-01
   Bfn.  Coefficient  Atom+Function         Bfn.  Coefficient  Atom+Function  
  ----- ------------  ---------------      ----- ------------  ---------------
    54      0.400728  7 O  pz                53      0.391490  7 O  py         
    57      0.320750  7 O  pz                56      0.314887  7 O  py         
    52      0.276452  7 O  px                55      0.223174  7 O  px         

 Vector   16  Occ=0.000000D+00  E= 1.471645D-01
              MO Center=  2.1D+00,  6.6D-01,  4.6D-01, r^2= 4.5D+00
   Bfn.  Coefficient  Atom+Function         Bfn.  Coefficient  Atom+Function  
  ----- ------------  ---------------      ----- ------------  ---------------
     3      0.881693  1 O  s                 16     -0.798701  2 H  s          
    21     -0.629049  3 H  s                 45     -0.436174  6 H  s          
    27      0.338612  4 O  s                  7      0.279262  1 O  px         
     4      0.154045  1 O  px         

 Vector   17  Occ=0.000000D+00  E= 2.078853D-01
              MO Center=  5.9D-01,  5.3D-03, -2.4D-01, r^2= 8.1D+00
   Bfn.  Coefficient  Atom+Function         Bfn.  Coefficient  Atom+Function  
  ----- ------------  ---------------      ----- ------------  ---------------
    45      1.031812  6 H  s                 21     -0.900211  3 H  s          
    27     -0.620116  4 O  s                 69      0.500085  9 H  s          
     3      0.399179  1 O  s                 51     -0.335576  7 O  s          
    32      0.295345  4 O  py                 8      0.283316  1 O  py         
    16      0.187132  2 H  s                 31     -0.151939  4 O  px         

 Vector   18  Occ=0.000000D+00  E= 2.292399D-01
              MO Center=  7.4D-01,  6.1D-01,  6.2D-01, r^2= 9.7D+00
   Bfn.  Coefficient  Atom+Function         Bfn.  Coefficient  Atom+Function  
  ----- ------------  ---------------      ----- ------------  ---------------
    16      1.208918  2 H  s                 21     -1.047499  3 H  s          
    69     -0.764997  9 H  s                 51      0.505434  7 O  s          
     8      0.467454  1 O  py                40     -0.249899  5 H  s          
     7     -0.240899  1 O  px                27      0.214880  4 O  s          
     5      0.202017  1 O  py                55     -0.171659  7 O  px         

 Vector   19  Occ=0.000000D+00  E= 2.492106D-01
              MO Center= -8.7D-01, -3.1D-01, -1.6D-02, r^2= 9.0D+00
   Bfn.  Coefficient  Atom+Function         Bfn.  Coefficient  Atom+Function  
  ----- ------------  ---------------      ----- ------------  ---------------
    69      1.065268  9 H  s                 45     -0.857220  6 H  s          
    16      0.710401  2 H  s                 51     -0.616313  7 O  s          
    21     -0.495765  3 H  s                 27      0.447189  4 O  s          
    55      0.277993  7 O  px                 8      0.255025  1 O  py         
    32     -0.247187  4 O  py                56     -0.202252  7 O  py         

 Vector   20  Occ=0.000000D+00  E= 3.362798D-01
              MO Center=  4.1D-01,  4.6D-01, -5.3D-01, r^2= 4.2D+00
   Bfn.  Coefficient  Atom+Function         Bfn.  Coefficient  Atom+Function  
  ----- ------------  ---------------      ----- ------------  ---------------
    40      1.749348  5 H  s                 45     -0.956139  6 H  s          
    27     -0.555303  4 O  s                 32     -0.484591  4 O  py         
    64      0.478179  8 H  s                 69     -0.431527  9 H  s          
    21     -0.384058  3 H  s                 33     -0.324647  4 O  pz         
    29     -0.220049  4 O  py                 7      0.214527  1 O  px         

 Vector   21  Occ=0.000000D+00  E= 4.150367D-01
              MO Center= -1.2D+00, -3.4D-01, -4.6D-01, r^2= 4.0D+00
   Bfn.  Coefficient  Atom+Function         Bfn.  Coefficient  Atom+Function  
  ----- ------------  ---------------      ----- ------------  ---------------
    64      2.111558  8 H  s                 69     -0.914652  9 H  s          
    40     -0.877352  5 H  s                 51     -0.616464  7 O  s          
    55     -0.535624  7 O  px                31      0.419107  4 O  px         
    57      0.396435  7 O  pz                28      0.235675  4 O  px         
    52     -0.187321  7 O  px                54      0.168101  7 O  pz         

 Vector   22  Occ=0.000000D+00  E= 7.181024D-01
              MO Center=  1.2D+00,  3.6D-01, -8.9D-02, r^2= 3.8D+00
   Bfn.  Coefficient  Atom+Function         Bfn.  Coefficient  Atom+Function  
  ----- ------------  ---------------      ----- ------------  ---------------
    15      0.731490  2 H  s                 44      0.701653  6 H  s          
    20     -0.650540  3 H  s                 40      0.601778  5 H  s          
    16     -0.526858  2 H  s                 39     -0.527277  5 H  s          
    45     -0.426597  6 H  s                 21      0.389148  3 H  s          
     8      0.380439  1 O  py                32      0.270072  4 O  py         

 Vector   23  Occ=0.000000D+00  E= 7.775544D-01
              MO Center=  9.9D-01,  2.4D-01, -1.5D-01, r^2= 4.4D+00
   Bfn.  Coefficient  Atom+Function         Bfn.  Coefficient  Atom+Function  
  ----- ------------  ---------------      ----- ------------  ---------------
    39      0.788138  5 H  s                 15      0.714760  2 H  s          
    40     -0.664531  5 H  s                 16     -0.566540  2 H  s          
    44     -0.518667  6 H  s                 45      0.469960  6 H  s          
    21      0.465198  3 H  s                 20     -0.452304  3 H  s          
    32     -0.278204  4 O  py                68      0.267324  9 H  s          

 Vector   24  Occ=0.000000D+00  E= 8.108042D-01
              MO Center=  2.2D+00,  1.2D+00,  8.7D-01, r^2= 1.9D+00
   Bfn.  Coefficient  Atom+Function         Bfn.  Coefficient  Atom+Function  
  ----- ------------  ---------------      ----- ------------  ---------------
    20      0.951650  3 H  s                 15      0.683449  2 H  s          
    21     -0.659349  3 H  s                 16     -0.495043  2 H  s          
     3      0.297619  1 O  s                  2     -0.278536  1 O  s          
    23      0.272969  3 H  py                 4     -0.230815  1 O  px         
    18     -0.225443  2 H  py                44      0.154922  6 H  s          

 Vector   25  Occ=0.000000D+00  E= 8.190502D-01
              MO Center= -1.4D+00, -5.0D-01, -7.8D-02, r^2= 2.5D+00
   Bfn.  Coefficient  Atom+Function         Bfn.  Coefficient  Atom+Function  
  ----- ------------  ---------------      ----- ------------  ---------------
    64     -1.188881  8 H  s                 63      1.140640  8 H  s          
    69      0.481211  9 H  s                 68     -0.430590  9 H  s          
    45      0.284514  6 H  s                 27      0.241408  4 O  s          
    55     -0.234916  7 O  px                44     -0.210511  6 H  s          
    51      0.203868  7 O  s                 20     -0.200907  3 H  s          


 center of mass
 --------------
 x =  -0.05368884 y =  -0.02766867 z =   0.00313655

 moments of inertia (a.u.)
 ------------------
         265.055520298757        -210.882891038860         -39.174028442540
        -210.882891038860         638.733928407421         -47.275459922503
         -39.174028442540         -47.275459922503         592.517350356358

  Mulliken analysis of the total density
  --------------------------------------

    Atom       Charge   Shell Charges
 -----------   ------   -------------------------------------------------------
    1 O    8     8.32   2.00  0.83  0.84  2.81  1.82  0.01
    2 H    1     0.82   0.66  0.08  0.08
    3 H    1     0.82   0.67  0.06  0.08
    4 O    8     8.34   2.00  0.83  0.84  2.82  1.83  0.01
    5 H    1     0.81   0.64  0.08  0.09
    6 H    1     0.83   0.67  0.07  0.08
    7 O    8     8.39   2.00  0.83  0.84  2.82  1.88  0.01
    8 H    1     0.81   0.63  0.09  0.09
    9 H    1     0.86   0.69  0.08  0.08

       Multipole analysis of the density wrt the origin
       ------------------------------------------------

     L   x y z        total         open         nuclear
     -   - - -        -----         ----         -------
     0   0 0 0     -0.000000      0.000000     30.000000

     1   1 0 0      1.684596      0.000000     -0.000000
     1   0 1 0      0.855831      0.000000     -0.000000
     1   0 0 1     -0.067092      0.000000      0.000000

     2   2 0 0     -6.139607      0.000000    279.281086
     2   1 1 0     -1.133199      0.000000    116.166114
     2   1 0 1      1.596830      0.000000     23.186125
     2   0 2 0    -11.915900      0.000000     63.699906
     2   0 1 1      2.940703      0.000000     29.232764
     2   0 0 2    -17.116181      0.000000     84.340023


 Parallel integral file used      47 records with       0 large values

                              NWChem Gradients Module
                              -----------------------



  wavefunction    =   RHF     



                         RHF ENERGY GRADIENTS

    atom               coordinates                        gradient
                 x          y          z           x          y          z
   1 O       3.319213   1.737558   1.601290   -0.036458   0.003694   0.007254
   2 H       4.877934   0.779720   1.249076    0.030625  -0.023111  -0.010123
   3 H       3.857139   3.447428   1.935545    0.003674   0.018877   0.003579
   4 O       0.111018  -0.317958  -2.385693   -0.033740   0.009457  -0.010383
   5 H       1.157392   0.733988  -1.293175    0.015840   0.011469   0.010720
   6 H       0.964578  -1.944709  -2.292577    0.014915  -0.022260   0.003108
   7 O      -3.795937  -1.608068   0.805768    0.000899  -0.019854   0.019680
   8 H      -2.666315  -0.977687  -0.532743    0.022021   0.010337  -0.025137
   9 H      -5.265075  -0.530998   0.762954   -0.017775   0.011392   0.001301

                 ----------------------------------------
                 |  Time  |  1-e(secs)   |  2-e(secs)   |
                 ----------------------------------------
                 |  CPU   |       0.01   |       0.79   |
                 ----------------------------------------
                 |  WALL  |       0.01   |       0.80   |
                 ----------------------------------------

 Task  times  cpu:        2.2s     wall:        2.2s


                                NWChem Input Module
                                -------------------


 Summary of allocated global arrays
-----------------------------------
  No active global arrays



                         GA Statistics for process    0
                         ------------------------------

       create   destroy   get      put      acc     scatter   gather  read&inc
calls:  249      249     8485     3841     3497        0        0      141     
number of processes/call 0.00e+00 0.00e+00 0.00e+00 0.00e+00 0.00e+00
bytes total:             1.41e+07 8.42e+06 2.03e+06 0.00e+00 0.00e+00 1.13e+03
bytes remote:            0.00e+00 0.00e+00 0.00e+00 0.00e+00 0.00e+00 0.00e+00
Max memory consumed for GA by this process: 539136 bytes

MA_summarize_allocated_blocks: starting scan ...
MA_summarize_allocated_blocks: scan completed: 0 heap blocks, 0 stack blocks
MA usage statistics:

	allocation statistics:
					      heap	     stack
					      ----	     -----
	current number of blocks	         0	         0
	maximum number of blocks	        18	        28
	current total bytes		         0	         0
	maximum total bytes		  57703128	  26171416
	maximum total K-bytes		     57704	     26172
	maximum total M-bytes		        58	        27


                                     CITATION
                                     --------
                Please cite the following reference when publishing
                           results obtained with NWChem:

          E. Aprà, E. J. Bylaska, W. A. de Jong, N. Govind, K. Kowalski,
       T. P. Straatsma, M. Valiev, H. J. J. van Dam, Y. Alexeev, J. Anchell,
       V. Anisimov, F. W. Aquino, R. Atta-Fynn, J. Autschbach, N. P. Bauman,
     J. C. Becca, D. E. Bernholdt, K. Bhaskaran-Nair, S. Bogatko, P. Borowski,
        J. Boschen, J. Brabec, A. Bruner, E. Cauët, Y. Chen, G. N. Chuev,
      C. J. Cramer, J. Daily, M. J. O. Deegan, T. H. Dunning Jr., M. Dupuis,
   K. G. Dyall, G. I. Fann, S. A. Fischer, A. Fonari, H. Früchtl, L. Gagliardi,
      J. Garza, N. Gawande, S. Ghosh, K. Glaesemann, A. W. Götz, J. Hammond,
       V. Helms, E. D. Hermes, K. Hirao, S. Hirata, M. Jacquelin, L. Jensen,
   B. G. Johnson, H. Jónsson, R. A. Kendall, M. Klemm, R. Kobayashi, V. Konkov,
      S. Krishnamoorthy, M. Krishnan, Z. Lin, R. D. Lins, R. J. Littlefield,
      A. J. Logsdail, K. Lopata, W. Ma, A. V. Marenich, J. Martin del Campo,
   D. Mejia-Rodriguez, J. E. Moore, J. M. Mullin, T. Nakajima, D. R. Nascimento,
    J. A. Nichols, P. J. Nichols, J. Nieplocha, A. Otero-de-la-Roza, B. Palmer,
    A. Panyala, T. Pirojsirikul, B. Peng, R. Peverati, J. Pittner, L. Pollack,
   R. M. Richard, P. Sadayappan, G. C. Schatz, W. A. Shelton, D. W. Silverstein,
   D. M. A. Smith, T. A. Soares, D. Song, M. Swart, H. L. Taylor, G. S. Thomas,
            V. Tipparaju, D. G. Truhlar, K. Tsemekhman, T. Van Voorhis,
     Á. Vázquez-Mayagoitia, P. Verma, O. Villa, A. Vishnu, K. D. Vogiatzis,
        D. Wang, J. H. Weare, M. J. Williamson, T. L. Windus, K. Woliński,
        A. T. Wong, Q. Wu, C. Yang, Q. Yu, M. Zacharias, Z. Zhang, Y. Zhao,
                                and R. J. Harrison
                        "NWChem: Past, present, and future
                         J. Chem. Phys. 152, 184102 (2020)
                               doi:10.1063/5.0004997

                                      AUTHORS
                                      -------
     E. Apra, E. J. Bylaska, N. Govind, K. Kowalski, M. Valiev, W. A. de Jong,
      T. P. Straatsma, H. J. J. van Dam, D. Wang, T. L. Windus, N. P. Bauman,
       A. Panyala, J. Hammond, J. Autschbach, K. Bhaskaran-Nair, J. Brabec,
    K. Lopata, S. A. Fischer, S. Krishnamoorthy, M. Jacquelin, W. Ma, M. Klemm,
       O. Villa, Y. Chen, V. Anisimov, F. Aquino, S. Hirata, M. T. Hackler,
           Eric Hermes, L. Jensen, J. E. Moore, J. C. Becca, V. Konjkov,
            D. Mejia-Rodriguez, T. Risthaus, M. Malagoli, A. Marenich,
   A. Otero-de-la-Roza, J. Mullin, P. Nichols, R. Peverati, J. Pittner, Y. Zhao,
        P.-D. Fan, A. Fonari, M. J. Williamson, R. J. Harrison, J. R. Rehr,
      M. Dupuis, D. Silverstein, D. M. A. Smith, J. Nieplocha, V. Tipparaju,
      M. Krishnan, B. E. Van Kuiken, A. Vazquez-Mayagoitia, M. Swart, Q. Wu,
   T. Van Voorhis, A. A. Auer, M. Nooijen, L. D. Crosby, E. Brown, G. Cisneros,
     G. I. Fann, H. Fruchtl, J. Garza, K. Hirao, R. A. Kendall, J. A. Nichols,
       K. Tsemekhman, K. Wolinski, J. Anchell, D. E. Bernholdt, P. Borowski,
       T. Clark, D. Clerc, H. Dachsel, M. J. O. Deegan, K. Dyall, D. Elwood,
      E. Glendening, M. Gutowski, A. C. Hess, J. Jaffe, B. G. Johnson, J. Ju,
        R. Kobayashi, R. Kutteh, Z. Lin, R. Littlefield, X. Long, B. Meng,
      T. Nakajima, S. Niu, L. Pollack, M. Rosing, K. Glaesemann, G. Sandrone,
      M. Stave, H. Taylor, G. Thomas, J. H. van Lenthe, A. T. Wong, Z. Zhang.

 Total times  cpu:        2.2s     wall:        2.2s
