 argument  1 = nwchem/input_1_3.nw



============================== echo of input deck ==============================
echo
memory 1000 mb
geometry noautosym noautoz
O -0.64071556 -0.48854013 1.6410419
H -0.19915392 0.37247798 1.5285638
H -1.54433112 -0.32408724 1.298356
end
basis spherical
 * library cc-pvdz
end
task scf gradient
================================================================================


                                         
                                         


             Northwest Computational Chemistry Package (NWChem) 7.0.2
             --------------------------------------------------------


                    Environmental Molecular Sciences Laboratory
                       Pacific Northwest National Laboratory
                                Richland, WA 99352

                              Copyright (c) 1994-2020
                       Pacific Northwest National Laboratory
                            Battelle Memorial Institute

             NWChem is an open-source computational chemistry package
                        distributed under the terms of the
                      Educational Community License (ECL) 2.0
             A copy of the license is included with this distribution
                              in the LICENSE.TXT file

                                  ACKNOWLEDGMENT
                                  --------------

            This software and its documentation were developed at the
            EMSL at Pacific Northwest National Laboratory, a multiprogram
            national laboratory, operated for the U.S. Department of Energy
            by Battelle under Contract Number DE-AC05-76RL01830. Support
            for this work was provided by the Department of Energy Office
            of Biological and Environmental Research, Office of Basic
            Energy Sciences, and the Office of Advanced Scientific Computing.


           Job information
           ---------------

    hostname        = pop-os
    program         = nwchem
    date            = Tue Jul  6 14:07:18 2021

    compiled        = Wed_Jan_06_19:48:08_2021
    source          = /build/nwchem-ksKH2r/nwchem-7.0.2
    nwchem branch   = 7.0.2
    nwchem revision = N/A
    ga revision     = 5.7.1
    use scalapack   = T
    input           = nwchem/input_1_3.nw
    prefix          = input_1_3.
    data base       = ./input_1_3.db
    status          = startup
    nproc           =        1
    time left       =     -1s



           Memory information
           ------------------

    heap     =   32768000 doubles =    250.0 Mbytes
    stack    =   32767997 doubles =    250.0 Mbytes
    global   =   65536000 doubles =    500.0 Mbytes (distinct from heap & stack)
    total    =  131071997 doubles =   1000.0 Mbytes
    verify   = yes
    hardfail = no 


           Directory information
           ---------------------

  0 permanent = .
  0 scratch   = .




                                NWChem Input Module
                                -------------------



 Scaling coordinates for geometry "geometry" by  1.889725989
 (inverse scale =  0.529177249)



                             Geometry "geometry" -> ""
                             -------------------------

 Output coordinates in angstroms (scale by  1.889725989 to convert to a.u.)

  No.       Tag          Charge          X              Y              Z
 ---- ---------------- ---------- -------------- -------------- --------------
    1 O                    8.0000     0.04620539    -0.10254710     0.04551640
    2 H                    1.0000     0.48776703     0.75847101    -0.06696170
    3 H                    1.0000    -0.85741017     0.06190579    -0.29716950

      Atomic Mass 
      ----------- 

      O                 15.994910
      H                  1.007825


 Effective nuclear repulsion energy (a.u.)       9.0095613133

            Nuclear Dipole moment (a.u.) 
            ----------------------------
        X                 Y               Z
 ---------------- ---------------- ----------------
     0.0000000000     0.0000000000    -0.0000000000


            XYZ format geometry
            -------------------
     3
 geometry
 O                     0.04620539    -0.10254710     0.04551640
 H                     0.48776703     0.75847101    -0.06696170
 H                    -0.85741017     0.06190579    -0.29716950

 ==============================================================================
                                internuclear distances
 ------------------------------------------------------------------------------
       center one      |      center two      | atomic units |  angstroms
 ------------------------------------------------------------------------------
    2 H                |   1 O                |     1.84089  |     0.97416
    3 H                |   1 O                |     1.85251  |     0.98031
 ------------------------------------------------------------------------------
                         number of included internuclear distances:          2
 ==============================================================================



 ==============================================================================
                                 internuclear angles
 ------------------------------------------------------------------------------
        center 1       |       center 2       |       center 3       |  degrees
 ------------------------------------------------------------------------------
    2 H                |   1 O                |   3 H                |   103.25
 ------------------------------------------------------------------------------
                            number of included internuclear angles:          1
 ==============================================================================





 Summary of "ao basis" -> "" (spherical)
 ------------------------------------------------------------------------------
       Tag                 Description            Shells   Functions and Types
 ---------------- ------------------------------  ------  ---------------------
 *                          cc-pvdz                   on all atoms 


                      Basis "ao basis" -> "ao basis" (spherical)
                      -----
  O (Oxygen)
  ----------
            Exponent  Coefficients 
       -------------- ---------------------------------------------------------
  1 S  1.17200000E+04  0.000710
  1 S  1.75900000E+03  0.005470
  1 S  4.00800000E+02  0.027837
  1 S  1.13700000E+02  0.104800
  1 S  3.70300000E+01  0.283062
  1 S  1.32700000E+01  0.448719
  1 S  5.02500000E+00  0.270952
  1 S  1.01300000E+00  0.015458

  2 S  1.17200000E+04 -0.000160
  2 S  1.75900000E+03 -0.001263
  2 S  4.00800000E+02 -0.006267
  2 S  1.13700000E+02 -0.025716
  2 S  3.70300000E+01 -0.070924
  2 S  1.32700000E+01 -0.165411
  2 S  5.02500000E+00 -0.116955
  2 S  1.01300000E+00  0.557368

  3 S  3.02300000E-01  1.000000

  4 P  1.77000000E+01  0.043018
  4 P  3.85400000E+00  0.228913
  4 P  1.04600000E+00  0.508728

  5 P  2.75300000E-01  1.000000

  6 D  1.18500000E+00  1.000000

  H (Hydrogen)
  ------------
            Exponent  Coefficients 
       -------------- ---------------------------------------------------------
  1 S  1.30100000E+01  0.019685
  1 S  1.96200000E+00  0.137977
  1 S  4.44600000E-01  0.478148

  2 S  1.22000000E-01  1.000000

  3 P  7.27000000E-01  1.000000



 Summary of "ao basis" -> "ao basis" (spherical)
 ------------------------------------------------------------------------------
       Tag                 Description            Shells   Functions and Types
 ---------------- ------------------------------  ------  ---------------------
 O                          cc-pvdz                  6       14   3s2p1d
 H                          cc-pvdz                  3        5   2s1p


                                 NWChem SCF Module
                                 -----------------



  ao basis        = "ao basis"
  functions       =    24
  atoms           =     3
  closed shells   =     5
  open shells     =     0
  charge          =   0.00
  wavefunction    = RHF 
  input vectors   = atomic
  output vectors  = ./input_1_3.movecs
  use symmetry    = F
  symmetry adapt  = F


 Summary of "ao basis" -> "ao basis" (spherical)
 ------------------------------------------------------------------------------
       Tag                 Description            Shells   Functions and Types
 ---------------- ------------------------------  ------  ---------------------
 O                          cc-pvdz                  6       14   3s2p1d
 H                          cc-pvdz                  3        5   2s1p



 Forming initial guess at       0.0s


      Superposition of Atomic Density Guess
      -------------------------------------

 Sum of atomic energies:         -75.76222910

      Non-variational initial energy
      ------------------------------

 Total energy =     -75.888341
 1-e energy   =    -121.476495
 2-e energy   =      36.578593
 HOMO         =      -0.463237
 LUMO         =       0.086058


 Starting SCF solution at       0.1s



 ----------------------------------------------
         Quadratically convergent ROHF

 Convergence threshold     :          1.000E-04
 Maximum no. of iterations :           30
 Final Fock-matrix accuracy:          1.000E-07
 ----------------------------------------------


 Integral file          = ./input_1_3.aoints.0
 Record size in doubles =  65536        No. of integs per rec  =  43688
 Max. records in memory =      3        Max. records in file   = 200316
 No. of bits per label  =      8        No. of bits per value  =     64


 #quartets = 3.081D+03 #integrals = 4.593D+04 #direct =  0.0% #cached =100.0%


              iter       energy          gnorm     gmax       time
             ----- ------------------- --------- --------- --------
                 1      -75.9894702868  8.33D-01  3.62D-01      0.1
                 2      -76.0226993496  1.77D-01  8.31D-02      0.1
                 3      -76.0250760265  1.56D-02  6.91D-03      0.1
                 4      -76.0250949819  3.89D-05  2.16D-05      0.1


       Final RHF  results 
       ------------------ 

         Total SCF energy =    -76.025094981879
      One-electron energy =   -122.816217272768
      Two-electron energy =     37.781560977608
 Nuclear repulsion energy =      9.009561313280

        Time for solution =      0.1s


             Final eigenvalues
             -----------------

              1      
    1  -20.5546
    2   -1.3278
    3   -0.6864
    4   -0.5655
    5   -0.4923
    6    0.1819
    7    0.2533
    8    0.7711
    9    0.8415
   10    1.1658
   11    1.1995
   12    1.2560
   13    1.4363
   14    1.4753
   15    1.6643

                       ROHF Final Molecular Orbital Analysis
                       -------------------------------------

 Vector    2  Occ=2.000000D+00  E=-1.327786D+00
              MO Center= -1.6D-02,  4.1D-02, -1.7D-02, r^2= 5.1D-01
   Bfn.  Coefficient  Atom+Function         Bfn.  Coefficient  Atom+Function  
  ----- ------------  ---------------      ----- ------------  ---------------
     2      0.445099  1 O  s                  3      0.388639  1 O  s          
    15      0.187580  2 H  s                 20      0.184385  3 H  s          

 Vector    3  Occ=2.000000D+00  E=-6.864191D-01
              MO Center= -4.3D-02,  9.2D-02, -4.1D-02, r^2= 7.9D-01
   Bfn.  Coefficient  Atom+Function         Bfn.  Coefficient  Atom+Function  
  ----- ------------  ---------------      ----- ------------  ---------------
     4      0.426699  1 O  px                15      0.324618  2 H  s          
    20     -0.321616  3 H  s                  5      0.225957  1 O  py         
     7      0.201068  1 O  px         

 Vector    4  Occ=2.000000D+00  E=-5.654510D-01
              MO Center=  5.7D-02, -1.3D-01,  5.8D-02, r^2= 6.9D-01
   Bfn.  Coefficient  Atom+Function         Bfn.  Coefficient  Atom+Function  
  ----- ------------  ---------------      ----- ------------  ---------------
     5      0.457811  1 O  py                 3     -0.346420  1 O  s          
     8      0.307583  1 O  py                20      0.210458  3 H  s          
     4     -0.206678  1 O  px                15      0.206995  2 H  s          
     6     -0.203333  1 O  pz                 2     -0.150227  1 O  s          

 Vector    5  Occ=2.000000D+00  E=-4.922523D-01
              MO Center=  3.7D-02, -8.3D-02,  3.7D-02, r^2= 6.0D-01
   Bfn.  Coefficient  Atom+Function         Bfn.  Coefficient  Atom+Function  
  ----- ------------  ---------------      ----- ------------  ---------------
     6      0.578411  1 O  pz                 9      0.454123  1 O  pz         
     4     -0.188053  1 O  px                 5      0.172000  1 O  py         

 Vector    6  Occ=0.000000D+00  E= 1.818984D-01
              MO Center= -2.5D-01,  5.2D-01, -2.3D-01, r^2= 3.0D+00
   Bfn.  Coefficient  Atom+Function         Bfn.  Coefficient  Atom+Function  
  ----- ------------  ---------------      ----- ------------  ---------------
     3      0.979908  1 O  s                 21     -0.827657  3 H  s          
    16     -0.811340  2 H  s                  8      0.292102  1 O  py         
     5      0.167194  1 O  py         

 Vector    7  Occ=0.000000D+00  E= 2.533264D-01
              MO Center= -2.2D-01,  5.4D-01, -2.3D-01, r^2= 3.6D+00
   Bfn.  Coefficient  Atom+Function         Bfn.  Coefficient  Atom+Function  
  ----- ------------  ---------------      ----- ------------  ---------------
    16      1.420976  2 H  s                 21     -1.403357  3 H  s          
     7     -0.585731  1 O  px                 8     -0.306842  1 O  py         
     4     -0.253883  1 O  px         

 Vector    8  Occ=0.000000D+00  E= 7.710755D-01
              MO Center= -1.5D-01,  2.0D-01, -1.1D-01, r^2= 1.7D+00
   Bfn.  Coefficient  Atom+Function         Bfn.  Coefficient  Atom+Function  
  ----- ------------  ---------------      ----- ------------  ---------------
    20     -0.971620  3 H  s                 15      0.911317  2 H  s          
    21      0.745270  3 H  s                 16     -0.698371  2 H  s          
     7     -0.371899  1 O  px                 4     -0.240953  1 O  px         
     8     -0.195368  1 O  py         

 Vector    9  Occ=0.000000D+00  E= 8.415467D-01
              MO Center= -1.5D-01,  4.4D-01, -1.8D-01, r^2= 1.6D+00
   Bfn.  Coefficient  Atom+Function         Bfn.  Coefficient  Atom+Function  
  ----- ------------  ---------------      ----- ------------  ---------------
    15      0.832167  2 H  s                 20      0.762798  3 H  s          
    16     -0.584044  2 H  s                 21     -0.540438  3 H  s          
     3      0.337325  1 O  s                  5     -0.289856  1 O  py         
    22     -0.265526  3 H  px                 2     -0.263399  1 O  s          
    17      0.223481  2 H  px                18      0.188999  2 H  py         

 Vector   10  Occ=0.000000D+00  E= 1.165794D+00
              MO Center=  4.4D-02, -1.2D-01,  4.9D-02, r^2= 1.2D+00
   Bfn.  Coefficient  Atom+Function         Bfn.  Coefficient  Atom+Function  
  ----- ------------  ---------------      ----- ------------  ---------------
     8      1.071120  1 O  py                 3      0.687024  1 O  s          
     5     -0.641782  1 O  py                15     -0.529258  2 H  s          
    20     -0.517546  3 H  s                  9     -0.465403  1 O  pz         
     7     -0.451795  1 O  px                 6      0.280805  1 O  pz         
     4      0.276701  1 O  px                18      0.259864  2 H  py         

 Vector   11  Occ=0.000000D+00  E= 1.199521D+00
              MO Center=  3.8D-02, -9.1D-02,  3.9D-02, r^2= 1.1D+00
   Bfn.  Coefficient  Atom+Function         Bfn.  Coefficient  Atom+Function  
  ----- ------------  ---------------      ----- ------------  ---------------
     9     -0.922941  1 O  pz                 6      0.885122  1 O  pz         
     7      0.300066  1 O  px                 4     -0.287771  1 O  px         
     8     -0.274452  1 O  py                 5      0.263206  1 O  py         

 Vector   12  Occ=0.000000D+00  E= 1.256022D+00
              MO Center=  5.7D-02, -1.1D-01,  5.0D-02, r^2= 1.7D+00
   Bfn.  Coefficient  Atom+Function         Bfn.  Coefficient  Atom+Function  
  ----- ------------  ---------------      ----- ------------  ---------------
     7      1.529128  1 O  px                16     -0.799299  2 H  s          
    21      0.796289  3 H  s                  8      0.779102  1 O  py         
     4     -0.659326  1 O  px                20      0.367345  3 H  s          
    15     -0.356108  2 H  s                 22      0.333969  3 H  px         
     5     -0.331184  1 O  py                18      0.290235  2 H  py         

 Vector   13  Occ=0.000000D+00  E= 1.436312D+00
              MO Center= -2.1D-02,  4.3D-02, -1.9D-02, r^2= 1.4D+00
   Bfn.  Coefficient  Atom+Function         Bfn.  Coefficient  Atom+Function  
  ----- ------------  ---------------      ----- ------------  ---------------
     8      0.655891  1 O  py                23     -0.605354  3 H  py         
    17      0.510974  2 H  px                 2      0.507100  1 O  s          
     3     -0.425286  1 O  s                 15     -0.356306  2 H  s          
    20     -0.352490  3 H  s                  7     -0.289043  1 O  px         
     9     -0.289014  1 O  pz                18     -0.278741  2 H  py         

 Vector   14  Occ=0.000000D+00  E= 1.475340D+00
              MO Center= -1.7D-01,  3.7D-01, -1.7D-01, r^2= 1.1D+00
   Bfn.  Coefficient  Atom+Function         Bfn.  Coefficient  Atom+Function  
  ----- ------------  ---------------      ----- ------------  ---------------
    24     -0.628912  3 H  pz                19      0.624655  2 H  pz         
    22      0.204472  3 H  px                17     -0.203088  2 H  px         
    23     -0.187018  3 H  py                18      0.185752  2 H  py         

 Vector   15  Occ=0.000000D+00  E= 1.664344D+00
              MO Center= -1.1D-01,  2.5D-01, -1.1D-01, r^2= 1.2D+00
   Bfn.  Coefficient  Atom+Function         Bfn.  Coefficient  Atom+Function  
  ----- ------------  ---------------      ----- ------------  ---------------
    19      0.699186  2 H  pz                24      0.693783  3 H  pz         
     9     -0.590585  1 O  pz                17     -0.227319  2 H  px         
    22     -0.225562  3 H  px                18      0.207915  2 H  py         
    23      0.206308  3 H  py                 7      0.192011  1 O  px         
     8     -0.175621  1 O  py         


 center of mass
 --------------
 x =   0.03845599 y =  -0.08534826 z =   0.03788255

 moments of inertia (a.u.)
 ------------------
           2.980139073435          -0.928919409043          -0.893352463514
          -0.928919409043           4.023846290284           0.457372034084
          -0.893352463514           0.457372034084           6.151078038433

  Mulliken analysis of the total density
  --------------------------------------

    Atom       Charge   Shell Charges
 -----------   ------   -------------------------------------------------------
    1 O    8     8.33   2.00  0.84  0.84  2.80  1.83  0.01
    2 H    1     0.84   0.68  0.08  0.08
    3 H    1     0.84   0.68  0.08  0.08

       Multipole analysis of the density wrt the origin
       ------------------------------------------------

     L   x y z        total         open         nuclear
     -   - - -        -----         ----         -------
     0   0 0 0     -0.000000      0.000000     10.000000

     1   1 0 0     -0.312307      0.000000      0.000000
     1   0 1 0      0.697131      0.000000      0.000000
     1   0 0 1     -0.308841      0.000000     -0.000000

     2   2 0 0     -3.446898      0.000000      3.535884
     2   1 1 0      0.582664      0.000000      0.996229
     2   1 0 1      0.416872      0.000000      0.853339
     2   0 2 0     -4.160338      0.000000      2.368465
     2   0 1 1     -0.138174      0.000000     -0.380410
     2   0 0 2     -5.085416      0.000000      0.390558


 Parallel integral file used       2 records with       0 large values

                              NWChem Gradients Module
                              -----------------------



  wavefunction    =   RHF     



                         RHF ENERGY GRADIENTS

    atom               coordinates                        gradient
                 x          y          z           x          y          z
   1 O       0.087316  -0.193786   0.086014    0.019254  -0.032008   0.015778
   2 H       0.921746   1.433302  -0.126539    0.012697   0.025722  -0.003521
   3 H      -1.620270   0.116985  -0.561569   -0.031951   0.006286  -0.012257

                 ----------------------------------------
                 |  Time  |  1-e(secs)   |  2-e(secs)   |
                 ----------------------------------------
                 |  CPU   |       0.00   |       0.11   |
                 ----------------------------------------
                 |  WALL  |       0.00   |       0.11   |
                 ----------------------------------------

 Task  times  cpu:        0.2s     wall:        0.2s


                                NWChem Input Module
                                -------------------


 Summary of allocated global arrays
-----------------------------------
  No active global arrays



                         GA Statistics for process    0
                         ------------------------------

       create   destroy   get      put      acc     scatter   gather  read&inc
calls:  214      214     4372     1076     1036        0        0       92     
number of processes/call 0.00e+00 0.00e+00 0.00e+00 0.00e+00 0.00e+00
bytes total:             1.41e+06 8.52e+05 1.89e+05 0.00e+00 0.00e+00 7.36e+02
bytes remote:            0.00e+00 0.00e+00 0.00e+00 0.00e+00 0.00e+00 0.00e+00
Max memory consumed for GA by this process: 59904 bytes

MA_summarize_allocated_blocks: starting scan ...
MA_summarize_allocated_blocks: scan completed: 0 heap blocks, 0 stack blocks
MA usage statistics:

	allocation statistics:
					      heap	     stack
					      ----	     -----
	current number of blocks	         0	         0
	maximum number of blocks	        18	        28
	current total bytes		         0	         0
	maximum total bytes		   1585792	  22509640
	maximum total K-bytes		      1586	     22510
	maximum total M-bytes		         2	        23


                                     CITATION
                                     --------
                Please cite the following reference when publishing
                           results obtained with NWChem:

          E. Aprà, E. J. Bylaska, W. A. de Jong, N. Govind, K. Kowalski,
       T. P. Straatsma, M. Valiev, H. J. J. van Dam, Y. Alexeev, J. Anchell,
       V. Anisimov, F. W. Aquino, R. Atta-Fynn, J. Autschbach, N. P. Bauman,
     J. C. Becca, D. E. Bernholdt, K. Bhaskaran-Nair, S. Bogatko, P. Borowski,
        J. Boschen, J. Brabec, A. Bruner, E. Cauët, Y. Chen, G. N. Chuev,
      C. J. Cramer, J. Daily, M. J. O. Deegan, T. H. Dunning Jr., M. Dupuis,
   K. G. Dyall, G. I. Fann, S. A. Fischer, A. Fonari, H. Früchtl, L. Gagliardi,
      J. Garza, N. Gawande, S. Ghosh, K. Glaesemann, A. W. Götz, J. Hammond,
       V. Helms, E. D. Hermes, K. Hirao, S. Hirata, M. Jacquelin, L. Jensen,
   B. G. Johnson, H. Jónsson, R. A. Kendall, M. Klemm, R. Kobayashi, V. Konkov,
      S. Krishnamoorthy, M. Krishnan, Z. Lin, R. D. Lins, R. J. Littlefield,
      A. J. Logsdail, K. Lopata, W. Ma, A. V. Marenich, J. Martin del Campo,
   D. Mejia-Rodriguez, J. E. Moore, J. M. Mullin, T. Nakajima, D. R. Nascimento,
    J. A. Nichols, P. J. Nichols, J. Nieplocha, A. Otero-de-la-Roza, B. Palmer,
    A. Panyala, T. Pirojsirikul, B. Peng, R. Peverati, J. Pittner, L. Pollack,
   R. M. Richard, P. Sadayappan, G. C. Schatz, W. A. Shelton, D. W. Silverstein,
   D. M. A. Smith, T. A. Soares, D. Song, M. Swart, H. L. Taylor, G. S. Thomas,
            V. Tipparaju, D. G. Truhlar, K. Tsemekhman, T. Van Voorhis,
     Á. Vázquez-Mayagoitia, P. Verma, O. Villa, A. Vishnu, K. D. Vogiatzis,
        D. Wang, J. H. Weare, M. J. Williamson, T. L. Windus, K. Woliński,
        A. T. Wong, Q. Wu, C. Yang, Q. Yu, M. Zacharias, Z. Zhang, Y. Zhao,
                                and R. J. Harrison
                        "NWChem: Past, present, and future
                         J. Chem. Phys. 152, 184102 (2020)
                               doi:10.1063/5.0004997

                                      AUTHORS
                                      -------
     E. Apra, E. J. Bylaska, N. Govind, K. Kowalski, M. Valiev, W. A. de Jong,
      T. P. Straatsma, H. J. J. van Dam, D. Wang, T. L. Windus, N. P. Bauman,
       A. Panyala, J. Hammond, J. Autschbach, K. Bhaskaran-Nair, J. Brabec,
    K. Lopata, S. A. Fischer, S. Krishnamoorthy, M. Jacquelin, W. Ma, M. Klemm,
       O. Villa, Y. Chen, V. Anisimov, F. Aquino, S. Hirata, M. T. Hackler,
           Eric Hermes, L. Jensen, J. E. Moore, J. C. Becca, V. Konjkov,
            D. Mejia-Rodriguez, T. Risthaus, M. Malagoli, A. Marenich,
   A. Otero-de-la-Roza, J. Mullin, P. Nichols, R. Peverati, J. Pittner, Y. Zhao,
        P.-D. Fan, A. Fonari, M. J. Williamson, R. J. Harrison, J. R. Rehr,
      M. Dupuis, D. Silverstein, D. M. A. Smith, J. Nieplocha, V. Tipparaju,
      M. Krishnan, B. E. Van Kuiken, A. Vazquez-Mayagoitia, M. Swart, Q. Wu,
   T. Van Voorhis, A. A. Auer, M. Nooijen, L. D. Crosby, E. Brown, G. Cisneros,
     G. I. Fann, H. Fruchtl, J. Garza, K. Hirao, R. A. Kendall, J. A. Nichols,
       K. Tsemekhman, K. Wolinski, J. Anchell, D. E. Bernholdt, P. Borowski,
       T. Clark, D. Clerc, H. Dachsel, M. J. O. Deegan, K. Dyall, D. Elwood,
      E. Glendening, M. Gutowski, A. C. Hess, J. Jaffe, B. G. Johnson, J. Ju,
        R. Kobayashi, R. Kutteh, Z. Lin, R. Littlefield, X. Long, B. Meng,
      T. Nakajima, S. Niu, L. Pollack, M. Rosing, K. Glaesemann, G. Sandrone,
      M. Stave, H. Taylor, G. Thomas, J. H. van Lenthe, A. T. Wong, Z. Zhang.

 Total times  cpu:        0.2s     wall:        0.3s
