 argument  1 = nwchem/input_2_1_at_worker_5_1.nw



============================== echo of input deck ==============================
echo
memory 1000 mb
geometry noautosym noautoz
O 0.87715956 1.70409266 0.47858616
H 1.70199937 1.19722607 0.29220265
H 1.16181787 2.60891668 0.65546661
O -0.82054445 0.61636011 -1.6312343
H -0.26682713 1.17302621 -1.05309865
H -0.36885969 -0.24447946 -1.58195952
end
basis spherical
 * library cc-pvdz
end
task scf gradient
================================================================================


                                         
                                         


             Northwest Computational Chemistry Package (NWChem) 7.0.2
             --------------------------------------------------------


                    Environmental Molecular Sciences Laboratory
                       Pacific Northwest National Laboratory
                                Richland, WA 99352

                              Copyright (c) 1994-2020
                       Pacific Northwest National Laboratory
                            Battelle Memorial Institute

             NWChem is an open-source computational chemistry package
                        distributed under the terms of the
                      Educational Community License (ECL) 2.0
             A copy of the license is included with this distribution
                              in the LICENSE.TXT file

                                  ACKNOWLEDGMENT
                                  --------------

            This software and its documentation were developed at the
            EMSL at Pacific Northwest National Laboratory, a multiprogram
            national laboratory, operated for the U.S. Department of Energy
            by Battelle under Contract Number DE-AC05-76RL01830. Support
            for this work was provided by the Department of Energy Office
            of Biological and Environmental Research, Office of Basic
            Energy Sciences, and the Office of Advanced Scientific Computing.


           Job information
           ---------------

    hostname        = pop-os
    program         = nwchem
    date            = Thu Jul  8 18:22:15 2021

    compiled        = Wed_Jan_06_19:48:08_2021
    source          = /build/nwchem-ksKH2r/nwchem-7.0.2
    nwchem branch   = 7.0.2
    nwchem revision = N/A
    ga revision     = 5.7.1
    use scalapack   = T
    input           = nwchem/input_2_1_at_worker_5_1.nw
    prefix          = input_2_1_at_worker_5_1.
    data base       = ./input_2_1_at_worker_5_1.db
    status          = startup
    nproc           =        1
    time left       =     -1s



           Memory information
           ------------------

    heap     =   32768000 doubles =    250.0 Mbytes
    stack    =   32767997 doubles =    250.0 Mbytes
    global   =   65536000 doubles =    500.0 Mbytes (distinct from heap & stack)
    total    =  131071997 doubles =   1000.0 Mbytes
    verify   = yes
    hardfail = no 


           Directory information
           ---------------------

  0 permanent = .
  0 scratch   = .




                                NWChem Input Module
                                -------------------



 Scaling coordinates for geometry "geometry" by  1.889725989
 (inverse scale =  0.529177249)



                             Geometry "geometry" -> ""
                             -------------------------

 Output coordinates in angstroms (scale by  1.889725989 to convert to a.u.)

  No.       Tag          Charge          X              Y              Z
 ---- ---------------- ---------- -------------- -------------- --------------
    1 O                    8.0000     0.74310700     0.53917708     1.02401486
    2 H                    1.0000     1.56794681     0.03231049     0.83763135
    3 H                    1.0000     1.02776531     1.44400110     1.20089531
    4 O                    8.0000    -0.95459702    -0.54855547    -1.08580560
    5 H                    1.0000    -0.40087970     0.00811063    -0.50766995
    6 H                    1.0000    -0.50291226    -1.40939504    -1.03653082

      Atomic Mass 
      ----------- 

      O                 15.994910
      H                  1.007825


 Effective nuclear repulsion energy (a.u.)      36.3724127386

            Nuclear Dipole moment (a.u.) 
            ----------------------------
        X                 Y               Z
 ---------------- ---------------- ----------------
     0.0000000000    -0.0000000000     0.0000000000


            XYZ format geometry
            -------------------
     6
 geometry
 O                     0.74310700     0.53917708     1.02401486
 H                     1.56794681     0.03231049     0.83763135
 H                     1.02776531     1.44400110     1.20089531
 O                    -0.95459702    -0.54855547    -1.08580560
 H                    -0.40087970     0.00811063    -0.50766995
 H                    -0.50291226    -1.40939504    -1.03653082

 ==============================================================================
                                internuclear distances
 ------------------------------------------------------------------------------
       center one      |      center two      | atomic units |  angstroms
 ------------------------------------------------------------------------------
    2 H                |   1 O                |     1.86309  |     0.98591
    3 H                |   1 O                |     1.82339  |     0.96490
    5 H                |   4 O                |     1.84258  |     0.97505
    6 H                |   4 O                |     1.83944  |     0.97339
 ------------------------------------------------------------------------------
                         number of included internuclear distances:          4
 ==============================================================================



 ==============================================================================
                                 internuclear angles
 ------------------------------------------------------------------------------
        center 1       |       center 2       |       center 3       |  degrees
 ------------------------------------------------------------------------------
    2 H                |   1 O                |   3 H                |   105.66
    5 H                |   4 O                |   6 H                |   102.20
 ------------------------------------------------------------------------------
                            number of included internuclear angles:          2
 ==============================================================================





 Summary of "ao basis" -> "" (spherical)
 ------------------------------------------------------------------------------
       Tag                 Description            Shells   Functions and Types
 ---------------- ------------------------------  ------  ---------------------
 *                          cc-pvdz                   on all atoms 


                      Basis "ao basis" -> "ao basis" (spherical)
                      -----
  O (Oxygen)
  ----------
            Exponent  Coefficients 
       -------------- ---------------------------------------------------------
  1 S  1.17200000E+04  0.000710
  1 S  1.75900000E+03  0.005470
  1 S  4.00800000E+02  0.027837
  1 S  1.13700000E+02  0.104800
  1 S  3.70300000E+01  0.283062
  1 S  1.32700000E+01  0.448719
  1 S  5.02500000E+00  0.270952
  1 S  1.01300000E+00  0.015458

  2 S  1.17200000E+04 -0.000160
  2 S  1.75900000E+03 -0.001263
  2 S  4.00800000E+02 -0.006267
  2 S  1.13700000E+02 -0.025716
  2 S  3.70300000E+01 -0.070924
  2 S  1.32700000E+01 -0.165411
  2 S  5.02500000E+00 -0.116955
  2 S  1.01300000E+00  0.557368

  3 S  3.02300000E-01  1.000000

  4 P  1.77000000E+01  0.043018
  4 P  3.85400000E+00  0.228913
  4 P  1.04600000E+00  0.508728

  5 P  2.75300000E-01  1.000000

  6 D  1.18500000E+00  1.000000

  H (Hydrogen)
  ------------
            Exponent  Coefficients 
       -------------- ---------------------------------------------------------
  1 S  1.30100000E+01  0.019685
  1 S  1.96200000E+00  0.137977
  1 S  4.44600000E-01  0.478148

  2 S  1.22000000E-01  1.000000

  3 P  7.27000000E-01  1.000000



 Summary of "ao basis" -> "ao basis" (spherical)
 ------------------------------------------------------------------------------
       Tag                 Description            Shells   Functions and Types
 ---------------- ------------------------------  ------  ---------------------
 O                          cc-pvdz                  6       14   3s2p1d
 H                          cc-pvdz                  3        5   2s1p


                                 NWChem SCF Module
                                 -----------------



  ao basis        = "ao basis"
  functions       =    48
  atoms           =     6
  closed shells   =    10
  open shells     =     0
  charge          =   0.00
  wavefunction    = RHF 
  input vectors   = atomic
  output vectors  = ./input_2_1_at_worker_5_1.movecs
  use symmetry    = F
  symmetry adapt  = F


 Summary of "ao basis" -> "ao basis" (spherical)
 ------------------------------------------------------------------------------
       Tag                 Description            Shells   Functions and Types
 ---------------- ------------------------------  ------  ---------------------
 O                          cc-pvdz                  6       14   3s2p1d
 H                          cc-pvdz                  3        5   2s1p



 Forming initial guess at       0.0s


      Superposition of Atomic Density Guess
      -------------------------------------

 Sum of atomic energies:        -151.52445821

      Non-variational initial energy
      ------------------------------

 Total energy =    -151.822216
 1-e energy   =    -279.637015
 2-e energy   =      91.442386
 HOMO         =      -0.463948
 LUMO         =       0.062908


 Starting SCF solution at       0.1s



 ----------------------------------------------
         Quadratically convergent ROHF

 Convergence threshold     :          1.000E-04
 Maximum no. of iterations :           30
 Final Fock-matrix accuracy:          1.000E-07
 ----------------------------------------------


 Integral file          = ./input_2_1_at_worker_5_1.aoints.0
 Record size in doubles =  65536        No. of integs per rec  =  43688
 Max. records in memory =     23        Max. records in file   = 400228
 No. of bits per label  =      8        No. of bits per value  =     64


 #quartets = 4.120D+04 #integrals = 5.919D+05 #direct =  0.0% #cached =100.0%


              iter       energy          gnorm     gmax       time
             ----- ------------------- --------- --------- --------
                 1     -151.9919568777  1.13D+00  3.24D-01      0.3
                 2     -152.0526780111  2.45D-01  7.59D-02      0.4
                 3     -152.0573909933  2.10D-02  5.47D-03      0.4
                 4     -152.0574276357  3.66D-04  9.59D-05      0.4
                 5     -152.0574276448  6.68D-06  1.73D-06      0.4


       Final RHF  results 
       ------------------ 

         Total SCF energy =   -152.057427644785
      One-electron energy =   -282.303101471852
      Two-electron energy =     93.873261088464
 Nuclear repulsion energy =     36.372412738603

        Time for solution =      0.3s


             Final eigenvalues
             -----------------

              1      
    1  -20.5881
    2  -20.5209
    3   -1.3621
    4   -1.2993
    5   -0.7259
    6   -0.6628
    7   -0.5961
    8   -0.5454
    9   -0.5152
   10   -0.4625
   11    0.1540
   12    0.2212
   13    0.2449
   14    0.3553
   15    0.7332
   16    0.8029
   17    0.8162
   18    0.8787
   19    1.1274
   20    1.1691

                       ROHF Final Molecular Orbital Analysis
                       -------------------------------------

 Vector    2  Occ=2.000000D+00  E=-2.052092D+01
              MO Center= -9.5D-01, -5.5D-01, -1.1D+00, r^2= 1.5D-02
   Bfn.  Coefficient  Atom+Function         Bfn.  Coefficient  Atom+Function  
  ----- ------------  ---------------      ----- ------------  ---------------
    25      1.000933  4 O  s          

 Vector    3  Occ=2.000000D+00  E=-1.362115D+00
              MO Center=  8.8D-01,  5.9D-01,  1.0D+00, r^2= 5.5D-01
   Bfn.  Coefficient  Atom+Function         Bfn.  Coefficient  Atom+Function  
  ----- ------------  ---------------      ----- ------------  ---------------
     2      0.444438  1 O  s                  3      0.390732  1 O  s          
    20      0.188049  3 H  s                 15      0.177990  2 H  s          

 Vector    4  Occ=2.000000D+00  E=-1.299312D+00
              MO Center= -8.0D-01, -5.9D-01, -9.9D-01, r^2= 5.6D-01
   Bfn.  Coefficient  Atom+Function         Bfn.  Coefficient  Atom+Function  
  ----- ------------  ---------------      ----- ------------  ---------------
    26      0.442079  4 O  s                 27      0.387231  4 O  s          
    44      0.189054  6 H  s                 39      0.182980  5 H  s          

 Vector    5  Occ=2.000000D+00  E=-7.259312D-01
              MO Center=  9.4D-01,  6.1D-01,  1.0D+00, r^2= 8.1D-01
   Bfn.  Coefficient  Atom+Function         Bfn.  Coefficient  Atom+Function  
  ----- ------------  ---------------      ----- ------------  ---------------
     5      0.451762  1 O  py                20      0.329396  3 H  s          
    15     -0.311970  2 H  s                  8      0.211780  1 O  py         

 Vector    6  Occ=2.000000D+00  E=-6.628414D-01
              MO Center= -6.2D-01, -4.9D-01, -7.8D-01, r^2= 1.4D+00
   Bfn.  Coefficient  Atom+Function         Bfn.  Coefficient  Atom+Function  
  ----- ------------  ---------------      ----- ------------  ---------------
    29      0.424845  4 O  py                39      0.309771  5 H  s          
    44     -0.299660  6 H  s                 32      0.198560  4 O  py         
    30      0.174158  4 O  pz         

 Vector    7  Occ=2.000000D+00  E=-5.961004D-01
              MO Center=  4.9D-01,  3.5D-01,  7.3D-01, r^2= 1.7D+00
   Bfn.  Coefficient  Atom+Function         Bfn.  Coefficient  Atom+Function  
  ----- ------------  ---------------      ----- ------------  ---------------
     4      0.480760  1 O  px                 7      0.318316  1 O  px         
     3     -0.314096  1 O  s                 15      0.200729  2 H  s          
    20      0.179725  3 H  s                 29      0.171213  4 O  py         
     5      0.165230  1 O  py         

 Vector    8  Occ=2.000000D+00  E=-5.453801D-01
              MO Center= -3.3D-01, -1.4D-01, -2.9D-01, r^2= 2.8D+00
   Bfn.  Coefficient  Atom+Function         Bfn.  Coefficient  Atom+Function  
  ----- ------------  ---------------      ----- ------------  ---------------
    28     -0.347784  4 O  px                 6      0.339620  1 O  pz         
     9      0.272614  1 O  pz                27      0.272831  4 O  s          
    31     -0.237666  4 O  px                30     -0.199757  4 O  pz         
    44     -0.184675  6 H  s          

 Vector    9  Occ=2.000000D+00  E=-5.151587D-01
              MO Center=  1.7D-01,  1.8D-01,  2.9D-01, r^2= 2.6D+00
   Bfn.  Coefficient  Atom+Function         Bfn.  Coefficient  Atom+Function  
  ----- ------------  ---------------      ----- ------------  ---------------
     6      0.504303  1 O  pz                 9      0.388717  1 O  pz         
    28      0.271151  4 O  px                30      0.193225  4 O  pz         
    31      0.188413  4 O  px                27     -0.150326  4 O  s          

 Vector   10  Occ=2.000000D+00  E=-4.624795D-01
              MO Center= -9.3D-01, -5.5D-01, -1.1D+00, r^2= 6.1D-01
   Bfn.  Coefficient  Atom+Function         Bfn.  Coefficient  Atom+Function  
  ----- ------------  ---------------      ----- ------------  ---------------
    30      0.496556  4 O  pz                33      0.394833  4 O  pz         
    28     -0.352417  4 O  px                31     -0.280322  4 O  px         
    29     -0.156611  4 O  py         

 Vector   11  Occ=0.000000D+00  E= 1.539788D-01
              MO Center=  1.2D+00,  3.9D-01,  7.3D-01, r^2= 4.0D+00
   Bfn.  Coefficient  Atom+Function         Bfn.  Coefficient  Atom+Function  
  ----- ------------  ---------------      ----- ------------  ---------------
     3      0.910826  1 O  s                 16     -0.825631  2 H  s          
    21     -0.661672  3 H  s                 45     -0.385126  6 H  s          
     7      0.293834  1 O  px                27      0.282121  4 O  s          
     4      0.164404  1 O  px         

 Vector   12  Occ=0.000000D+00  E= 2.211741D-01
              MO Center=  5.0D-01,  1.2D-01,  2.2D-01, r^2= 6.8D+00
   Bfn.  Coefficient  Atom+Function         Bfn.  Coefficient  Atom+Function  
  ----- ------------  ---------------      ----- ------------  ---------------
    21      1.209441  3 H  s                 45     -0.955451  6 H  s          
    16     -0.691170  2 H  s                 27      0.522020  4 O  s          
     8     -0.442233  1 O  py                 3     -0.304279  1 O  s          
    32     -0.285594  4 O  py                 5     -0.206557  1 O  py         

 Vector   13  Occ=0.000000D+00  E= 2.448705D-01
              MO Center=  7.0D-01, -5.1D-01,  5.0D-02, r^2= 5.8D+00
   Bfn.  Coefficient  Atom+Function         Bfn.  Coefficient  Atom+Function  
  ----- ------------  ---------------      ----- ------------  ---------------
    16      1.220818  2 H  s                 45     -0.951822  6 H  s          
    21     -0.816086  3 H  s                 27      0.650873  4 O  s          
     8      0.411128  1 O  py                 7     -0.270892  1 O  px         
    32     -0.243631  4 O  py                 3     -0.184359  1 O  s          
     5      0.165981  1 O  py                31      0.163042  4 O  px         

 Vector   14  Occ=0.000000D+00  E= 3.553406D-01
              MO Center= -3.0D-01,  1.7D-01, -4.5D-01, r^2= 3.3D+00
   Bfn.  Coefficient  Atom+Function         Bfn.  Coefficient  Atom+Function  
  ----- ------------  ---------------      ----- ------------  ---------------
    40      1.938693  5 H  s                 45     -0.941757  6 H  s          
    27     -0.567135  4 O  s                 32     -0.529280  4 O  py         
    21     -0.372762  3 H  s                 33     -0.309797  4 O  pz         
     7      0.235497  1 O  px                29     -0.229899  4 O  py         
     9      0.212808  1 O  pz                31     -0.194944  4 O  px         

 Vector   15  Occ=0.000000D+00  E= 7.332476D-01
              MO Center=  5.8D-01,  2.2D-01,  4.4D-01, r^2= 3.3D+00
   Bfn.  Coefficient  Atom+Function         Bfn.  Coefficient  Atom+Function  
  ----- ------------  ---------------      ----- ------------  ---------------
    15      0.864351  2 H  s                 20     -0.745025  3 H  s          
    16     -0.636931  2 H  s                 44      0.539971  6 H  s          
    21      0.484366  3 H  s                 40      0.478763  5 H  s          
     8      0.407067  1 O  py                39     -0.393943  5 H  s          
    45     -0.304170  6 H  s                 32      0.196238  4 O  py         

 Vector   16  Occ=0.000000D+00  E= 8.029125D-01
              MO Center=  1.1D-02, -2.7D-01, -2.9D-01, r^2= 3.3D+00
   Bfn.  Coefficient  Atom+Function         Bfn.  Coefficient  Atom+Function  
  ----- ------------  ---------------      ----- ------------  ---------------
    39      0.894206  5 H  s                 40     -0.765307  5 H  s          
    15      0.663177  2 H  s                 44     -0.656465  6 H  s          
    45      0.605091  6 H  s                 16     -0.548524  2 H  s          
    21      0.317996  3 H  s                 32     -0.317264  4 O  py         
    20     -0.206633  3 H  s                  7     -0.177552  1 O  px         

 Vector   17  Occ=0.000000D+00  E= 8.162188D-01
              MO Center=  1.2D+00,  9.1D-01,  1.0D+00, r^2= 2.0D+00
   Bfn.  Coefficient  Atom+Function         Bfn.  Coefficient  Atom+Function  
  ----- ------------  ---------------      ----- ------------  ---------------
    20      0.985163  3 H  s                 21     -0.709803  3 H  s          
    15      0.620060  2 H  s                 16     -0.444475  2 H  s          
    40      0.325397  5 H  s                 23      0.282840  3 H  py         
     3      0.270581  1 O  s                  2     -0.263731  1 O  s          
     4     -0.229470  1 O  px                18     -0.223893  2 H  py         

 Vector   18  Occ=0.000000D+00  E= 8.786624D-01
              MO Center= -4.5D-01, -7.7D-01, -8.0D-01, r^2= 1.9D+00
   Bfn.  Coefficient  Atom+Function         Bfn.  Coefficient  Atom+Function  
  ----- ------------  ---------------      ----- ------------  ---------------
    44      0.844780  6 H  s                 40     -0.690741  5 H  s          
    39      0.653510  5 H  s                 45     -0.595675  6 H  s          
    27      0.445635  4 O  s                 47     -0.301337  6 H  py         
    28     -0.298380  4 O  px                16      0.267253  2 H  s          
    42      0.233659  5 H  py                26     -0.226060  4 O  s          

 Vector   19  Occ=0.000000D+00  E= 1.127432D+00
              MO Center=  3.8D-01,  2.8D-01,  5.7D-01, r^2= 2.6D+00
   Bfn.  Coefficient  Atom+Function         Bfn.  Coefficient  Atom+Function  
  ----- ------------  ---------------      ----- ------------  ---------------
     7      0.843526  1 O  px                 8      0.694397  1 O  py         
     3      0.579494  1 O  s                  4     -0.502822  1 O  px         
    20     -0.437752  3 H  s                 33     -0.421358  4 O  pz         
     5     -0.400090  1 O  py                15     -0.344617  2 H  s          
    30      0.344823  4 O  pz                 6      0.331741  1 O  pz         

 Vector   20  Occ=0.000000D+00  E= 1.169094D+00
              MO Center= -1.7D-01, -5.7D-02, -1.3D-01, r^2= 3.5D+00
   Bfn.  Coefficient  Atom+Function         Bfn.  Coefficient  Atom+Function  
  ----- ------------  ---------------      ----- ------------  ---------------
    31      0.757872  4 O  px                 9     -0.602768  1 O  pz         
     8     -0.577476  1 O  py                39     -0.573584  5 H  s          
    27      0.522965  4 O  s                 16     -0.504799  2 H  s          
     6      0.470786  1 O  pz                 7      0.467867  1 O  px         
    33      0.465460  4 O  pz                28     -0.437887  4 O  px         


 center of mass
 --------------
 x =  -0.08800983 y =  -0.00390274 z =  -0.02571371

 moments of inertia (a.u.)
 ------------------
         188.172672835986         -60.846356938867        -114.364687682387
         -60.846356938867         237.173432180038         -77.135872354725
        -114.364687682387         -77.135872354725         145.900497891979

  Mulliken analysis of the total density
  --------------------------------------

    Atom       Charge   Shell Charges
 -----------   ------   -------------------------------------------------------
    1 O    8     8.32   2.00  0.83  0.84  2.81  1.82  0.01
    2 H    1     0.82   0.66  0.08  0.08
    3 H    1     0.83   0.68  0.06  0.08
    4 O    8     8.35   2.00  0.83  0.84  2.81  1.86  0.01
    5 H    1     0.83   0.65  0.09  0.09
    6 H    1     0.86   0.69  0.08  0.08

       Multipole analysis of the density wrt the origin
       ------------------------------------------------

     L   x y z        total         open         nuclear
     -   - - -        -----         ----         -------
     0   0 0 0     -0.000000      0.000000     20.000000

     1   1 0 0      1.551672      0.000000      0.000000
     1   0 1 0      0.186295      0.000000     -0.000000
     1   0 0 1      0.571538      0.000000      0.000000

     2   2 0 0     -8.623147      0.000000     55.837489
     2   1 1 0      0.360537      0.000000     34.406603
     2   1 0 1     -0.329200      0.000000     63.036690
     2   0 2 0     -5.614069      0.000000     31.445519
     2   0 1 1      1.477017      0.000000     44.280918
     2   0 0 2    -11.652129      0.000000     76.051323


 Parallel integral file used      14 records with       0 large values

                              NWChem Gradients Module
                              -----------------------



  wavefunction    =   RHF     



                         RHF ENERGY GRADIENTS

    atom               coordinates                        gradient
                 x          y          z           x          y          z
   1 O       1.404269   1.018897   1.935107   -0.037294   0.003530   0.004885
   2 H       2.962990   0.061058   1.582894    0.030909  -0.023303  -0.009434
   3 H       1.942195   2.728766   2.269363    0.003611   0.018943   0.003896
   4 O      -1.803927  -1.036620  -2.051875   -0.031197   0.010837  -0.014778
   5 H      -0.757553   0.015327  -0.959357    0.018581   0.014056   0.013101
   6 H      -0.950366  -2.663370  -1.958759    0.015391  -0.024062   0.002330

                 ----------------------------------------
                 |  Time  |  1-e(secs)   |  2-e(secs)   |
                 ----------------------------------------
                 |  CPU   |       0.00   |       0.27   |
                 ----------------------------------------
                 |  WALL  |       0.00   |       0.27   |
                 ----------------------------------------

 Task  times  cpu:        0.7s     wall:        0.7s


                                NWChem Input Module
                                -------------------


 Summary of allocated global arrays
-----------------------------------
  No active global arrays



                         GA Statistics for process    0
                         ------------------------------

       create   destroy   get      put      acc     scatter   gather  read&inc
calls:  249      249     6355     2332     2356        0        0      115     
number of processes/call 0.00e+00 0.00e+00 0.00e+00 0.00e+00 0.00e+00
bytes total:             6.29e+06 3.74e+06 9.06e+05 0.00e+00 0.00e+00 9.20e+02
bytes remote:            0.00e+00 0.00e+00 0.00e+00 0.00e+00 0.00e+00 0.00e+00
Max memory consumed for GA by this process: 239616 bytes

MA_summarize_allocated_blocks: starting scan ...
MA_summarize_allocated_blocks: scan completed: 0 heap blocks, 0 stack blocks
MA usage statistics:

	allocation statistics:
					      heap	     stack
					      ----	     -----
	current number of blocks	         0	         0
	maximum number of blocks	        18	        28
	current total bytes		         0	         0
	maximum total bytes		  12084272	  22510280
	maximum total K-bytes		     12085	     22511
	maximum total M-bytes		        13	        23


                                     CITATION
                                     --------
                Please cite the following reference when publishing
                           results obtained with NWChem:

          E. Aprà, E. J. Bylaska, W. A. de Jong, N. Govind, K. Kowalski,
       T. P. Straatsma, M. Valiev, H. J. J. van Dam, Y. Alexeev, J. Anchell,
       V. Anisimov, F. W. Aquino, R. Atta-Fynn, J. Autschbach, N. P. Bauman,
     J. C. Becca, D. E. Bernholdt, K. Bhaskaran-Nair, S. Bogatko, P. Borowski,
        J. Boschen, J. Brabec, A. Bruner, E. Cauët, Y. Chen, G. N. Chuev,
      C. J. Cramer, J. Daily, M. J. O. Deegan, T. H. Dunning Jr., M. Dupuis,
   K. G. Dyall, G. I. Fann, S. A. Fischer, A. Fonari, H. Früchtl, L. Gagliardi,
      J. Garza, N. Gawande, S. Ghosh, K. Glaesemann, A. W. Götz, J. Hammond,
       V. Helms, E. D. Hermes, K. Hirao, S. Hirata, M. Jacquelin, L. Jensen,
   B. G. Johnson, H. Jónsson, R. A. Kendall, M. Klemm, R. Kobayashi, V. Konkov,
      S. Krishnamoorthy, M. Krishnan, Z. Lin, R. D. Lins, R. J. Littlefield,
      A. J. Logsdail, K. Lopata, W. Ma, A. V. Marenich, J. Martin del Campo,
   D. Mejia-Rodriguez, J. E. Moore, J. M. Mullin, T. Nakajima, D. R. Nascimento,
    J. A. Nichols, P. J. Nichols, J. Nieplocha, A. Otero-de-la-Roza, B. Palmer,
    A. Panyala, T. Pirojsirikul, B. Peng, R. Peverati, J. Pittner, L. Pollack,
   R. M. Richard, P. Sadayappan, G. C. Schatz, W. A. Shelton, D. W. Silverstein,
   D. M. A. Smith, T. A. Soares, D. Song, M. Swart, H. L. Taylor, G. S. Thomas,
            V. Tipparaju, D. G. Truhlar, K. Tsemekhman, T. Van Voorhis,
     Á. Vázquez-Mayagoitia, P. Verma, O. Villa, A. Vishnu, K. D. Vogiatzis,
        D. Wang, J. H. Weare, M. J. Williamson, T. L. Windus, K. Woliński,
        A. T. Wong, Q. Wu, C. Yang, Q. Yu, M. Zacharias, Z. Zhang, Y. Zhao,
                                and R. J. Harrison
                        "NWChem: Past, present, and future
                         J. Chem. Phys. 152, 184102 (2020)
                               doi:10.1063/5.0004997

                                      AUTHORS
                                      -------
     E. Apra, E. J. Bylaska, N. Govind, K. Kowalski, M. Valiev, W. A. de Jong,
      T. P. Straatsma, H. J. J. van Dam, D. Wang, T. L. Windus, N. P. Bauman,
       A. Panyala, J. Hammond, J. Autschbach, K. Bhaskaran-Nair, J. Brabec,
    K. Lopata, S. A. Fischer, S. Krishnamoorthy, M. Jacquelin, W. Ma, M. Klemm,
       O. Villa, Y. Chen, V. Anisimov, F. Aquino, S. Hirata, M. T. Hackler,
           Eric Hermes, L. Jensen, J. E. Moore, J. C. Becca, V. Konjkov,
            D. Mejia-Rodriguez, T. Risthaus, M. Malagoli, A. Marenich,
   A. Otero-de-la-Roza, J. Mullin, P. Nichols, R. Peverati, J. Pittner, Y. Zhao,
        P.-D. Fan, A. Fonari, M. J. Williamson, R. J. Harrison, J. R. Rehr,
      M. Dupuis, D. Silverstein, D. M. A. Smith, J. Nieplocha, V. Tipparaju,
      M. Krishnan, B. E. Van Kuiken, A. Vazquez-Mayagoitia, M. Swart, Q. Wu,
   T. Van Voorhis, A. A. Auer, M. Nooijen, L. D. Crosby, E. Brown, G. Cisneros,
     G. I. Fann, H. Fruchtl, J. Garza, K. Hirao, R. A. Kendall, J. A. Nichols,
       K. Tsemekhman, K. Wolinski, J. Anchell, D. E. Bernholdt, P. Borowski,
       T. Clark, D. Clerc, H. Dachsel, M. J. O. Deegan, K. Dyall, D. Elwood,
      E. Glendening, M. Gutowski, A. C. Hess, J. Jaffe, B. G. Johnson, J. Ju,
        R. Kobayashi, R. Kutteh, Z. Lin, R. Littlefield, X. Long, B. Meng,
      T. Nakajima, S. Niu, L. Pollack, M. Rosing, K. Glaesemann, G. Sandrone,
      M. Stave, H. Taylor, G. Thomas, J. H. van Lenthe, A. T. Wong, Z. Zhang.

 Total times  cpu:        0.7s     wall:        0.7s
