 argument  1 = nwchem/input_3_5_1.nw



============================== echo of input deck ==============================
echo
memory 1000 mb
geometry noautosym noautoz
O 0.87715956 1.70409266 0.47858616
H 1.70199937 1.19722607 0.29220265
H 1.16181787 2.60891668 0.65546661
O -0.64071556 -0.48854013 1.6410419
H -0.19915392 0.37247798 1.5285638
H -1.54433112 -0.32408724 1.298356
O 0.57630762 -1.69154092 -0.42866929
H 0.43417462 -2.64420081 -0.48595869
H 0.08911917 -1.3894609 0.38589939
end
basis spherical
 * library cc-pvdz
end
task scf gradient
================================================================================


                                         
                                         


             Northwest Computational Chemistry Package (NWChem) 7.0.2
             --------------------------------------------------------


                    Environmental Molecular Sciences Laboratory
                       Pacific Northwest National Laboratory
                                Richland, WA 99352

                              Copyright (c) 1994-2020
                       Pacific Northwest National Laboratory
                            Battelle Memorial Institute

             NWChem is an open-source computational chemistry package
                        distributed under the terms of the
                      Educational Community License (ECL) 2.0
             A copy of the license is included with this distribution
                              in the LICENSE.TXT file

                                  ACKNOWLEDGMENT
                                  --------------

            This software and its documentation were developed at the
            EMSL at Pacific Northwest National Laboratory, a multiprogram
            national laboratory, operated for the U.S. Department of Energy
            by Battelle under Contract Number DE-AC05-76RL01830. Support
            for this work was provided by the Department of Energy Office
            of Biological and Environmental Research, Office of Basic
            Energy Sciences, and the Office of Advanced Scientific Computing.


           Job information
           ---------------

    hostname        = pop-os
    program         = nwchem
    date            = Tue Jul  6 14:10:24 2021

    compiled        = Wed_Jan_06_19:48:08_2021
    source          = /build/nwchem-ksKH2r/nwchem-7.0.2
    nwchem branch   = 7.0.2
    nwchem revision = N/A
    ga revision     = 5.7.1
    use scalapack   = T
    input           = nwchem/input_3_5_1.nw
    prefix          = input_3_5_1.
    data base       = ./input_3_5_1.db
    status          = startup
    nproc           =        1
    time left       =     -1s



           Memory information
           ------------------

    heap     =   32768000 doubles =    250.0 Mbytes
    stack    =   32767997 doubles =    250.0 Mbytes
    global   =   65536000 doubles =    500.0 Mbytes (distinct from heap & stack)
    total    =  131071997 doubles =   1000.0 Mbytes
    verify   = yes
    hardfail = no 


           Directory information
           ---------------------

  0 permanent = .
  0 scratch   = .




                                NWChem Input Module
                                -------------------



 Scaling coordinates for geometry "geometry" by  1.889725989
 (inverse scale =  0.529177249)



                             Geometry "geometry" -> ""
                             -------------------------

 Output coordinates in angstroms (scale by  1.889725989 to convert to a.u.)

  No.       Tag          Charge          X              Y              Z
 ---- ---------------- ---------- -------------- -------------- --------------
    1 O                    8.0000     0.60563826     1.83699384    -0.09482050
    2 H                    1.0000     1.43047807     1.33012725    -0.28120401
    3 H                    1.0000     0.89029657     2.74181786     0.08205995
    4 O                    8.0000    -0.91223686    -0.35563895     1.06763524
    5 H                    1.0000    -0.47067522     0.50537916     0.95515714
    6 H                    1.0000    -1.81585242    -0.19118606     0.72494934
    7 O                    8.0000     0.30478632    -1.55863974    -1.00207595
    8 H                    1.0000     0.16265332    -2.51129963    -1.05936535
    9 H                    1.0000    -0.18240213    -1.25655972    -0.18750727

      Atomic Mass 
      ----------- 

      O                 15.994910
      H                  1.007825


 Effective nuclear repulsion energy (a.u.)      79.8962584064

            Nuclear Dipole moment (a.u.) 
            ----------------------------
        X                 Y               Z
 ---------------- ---------------- ----------------
     0.0000000000    -0.0000000000     0.0000000000


            XYZ format geometry
            -------------------
     9
 geometry
 O                     0.60563826     1.83699384    -0.09482050
 H                     1.43047807     1.33012725    -0.28120401
 H                     0.89029657     2.74181786     0.08205995
 O                    -0.91223686    -0.35563895     1.06763524
 H                    -0.47067522     0.50537916     0.95515714
 H                    -1.81585242    -0.19118606     0.72494934
 O                     0.30478632    -1.55863974    -1.00207595
 H                     0.16265332    -2.51129963    -1.05936535
 H                    -0.18240213    -1.25655972    -0.18750727

 ==============================================================================
                                internuclear distances
 ------------------------------------------------------------------------------
       center one      |      center two      | atomic units |  angstroms
 ------------------------------------------------------------------------------
    2 H                |   1 O                |     1.86309  |     0.98591
    3 H                |   1 O                |     1.82339  |     0.96490
    5 H                |   4 O                |     1.84089  |     0.97416
    6 H                |   4 O                |     1.85251  |     0.98031
    8 H                |   7 O                |     1.82341  |     0.96491
    9 H                |   7 O                |     1.88227  |     0.99606
 ------------------------------------------------------------------------------
                         number of included internuclear distances:          6
 ==============================================================================



 ==============================================================================
                                 internuclear angles
 ------------------------------------------------------------------------------
        center 1       |       center 2       |       center 3       |  degrees
 ------------------------------------------------------------------------------
    2 H                |   1 O                |   3 H                |   105.66
    5 H                |   4 O                |   6 H                |   103.25
    8 H                |   7 O                |   9 H                |   106.02
 ------------------------------------------------------------------------------
                            number of included internuclear angles:          3
 ==============================================================================





 Summary of "ao basis" -> "" (spherical)
 ------------------------------------------------------------------------------
       Tag                 Description            Shells   Functions and Types
 ---------------- ------------------------------  ------  ---------------------
 *                          cc-pvdz                   on all atoms 


                      Basis "ao basis" -> "ao basis" (spherical)
                      -----
  O (Oxygen)
  ----------
            Exponent  Coefficients 
       -------------- ---------------------------------------------------------
  1 S  1.17200000E+04  0.000710
  1 S  1.75900000E+03  0.005470
  1 S  4.00800000E+02  0.027837
  1 S  1.13700000E+02  0.104800
  1 S  3.70300000E+01  0.283062
  1 S  1.32700000E+01  0.448719
  1 S  5.02500000E+00  0.270952
  1 S  1.01300000E+00  0.015458

  2 S  1.17200000E+04 -0.000160
  2 S  1.75900000E+03 -0.001263
  2 S  4.00800000E+02 -0.006267
  2 S  1.13700000E+02 -0.025716
  2 S  3.70300000E+01 -0.070924
  2 S  1.32700000E+01 -0.165411
  2 S  5.02500000E+00 -0.116955
  2 S  1.01300000E+00  0.557368

  3 S  3.02300000E-01  1.000000

  4 P  1.77000000E+01  0.043018
  4 P  3.85400000E+00  0.228913
  4 P  1.04600000E+00  0.508728

  5 P  2.75300000E-01  1.000000

  6 D  1.18500000E+00  1.000000

  H (Hydrogen)
  ------------
            Exponent  Coefficients 
       -------------- ---------------------------------------------------------
  1 S  1.30100000E+01  0.019685
  1 S  1.96200000E+00  0.137977
  1 S  4.44600000E-01  0.478148

  2 S  1.22000000E-01  1.000000

  3 P  7.27000000E-01  1.000000



 Summary of "ao basis" -> "ao basis" (spherical)
 ------------------------------------------------------------------------------
       Tag                 Description            Shells   Functions and Types
 ---------------- ------------------------------  ------  ---------------------
 O                          cc-pvdz                  6       14   3s2p1d
 H                          cc-pvdz                  3        5   2s1p


                                 NWChem SCF Module
                                 -----------------



  ao basis        = "ao basis"
  functions       =    72
  atoms           =     9
  closed shells   =    15
  open shells     =     0
  charge          =   0.00
  wavefunction    = RHF 
  input vectors   = atomic
  output vectors  = ./input_3_5_1.movecs
  use symmetry    = F
  symmetry adapt  = F


 Summary of "ao basis" -> "ao basis" (spherical)
 ------------------------------------------------------------------------------
       Tag                 Description            Shells   Functions and Types
 ---------------- ------------------------------  ------  ---------------------
 O                          cc-pvdz                  6       14   3s2p1d
 H                          cc-pvdz                  3        5   2s1p



 Forming initial guess at       0.1s


      Superposition of Atomic Density Guess
      -------------------------------------

 Sum of atomic energies:        -227.28668731

      Non-variational initial energy
      ------------------------------

 Total energy =    -227.782285
 1-e energy   =    -470.146082
 2-e energy   =     162.467539
 HOMO         =      -0.460594
 LUMO         =       0.055738


 Starting SCF solution at       0.3s



 ----------------------------------------------
         Quadratically convergent ROHF

 Convergence threshold     :          1.000E-04
 Maximum no. of iterations :           30
 Final Fock-matrix accuracy:          1.000E-07
 ----------------------------------------------


 Integral file          = ./input_3_5_1.aoints.0
 Record size in doubles =  65536        No. of integs per rec  =  43688
 Max. records in memory =    110        Max. records in file   = 400580
 No. of bits per label  =      8        No. of bits per value  =     64


 #quartets = 1.738D+05 #integrals = 2.285D+06 #direct =  0.0% #cached =100.0%


              iter       energy          gnorm     gmax       time
             ----- ------------------- --------- --------- --------
                 1     -228.0026276414  1.33D+00  2.34D-01      0.9
                 2     -228.0865883908  2.92D-01  6.87D-02      1.0
                 3     -228.0934341868  2.45D-02  4.49D-03      1.1
                 4     -228.0934876416  4.69D-04  9.72D-05      1.2
                 5     -228.0934876585  2.50D-06  6.09D-07      1.4


       Final RHF  results 
       ------------------ 

         Total SCF energy =   -228.093487658547
      One-electron energy =   -474.277209472295
      Two-electron energy =    166.287463407365
 Nuclear repulsion energy =     79.896258406384

        Time for solution =      1.0s


             Final eigenvalues
             -----------------

              1      
    1  -20.5804
    2  -20.5631
    3  -20.5018
    4   -1.3554
    5   -1.3416
    6   -1.2794
    7   -0.7198
    8   -0.6988
    9   -0.6631
   10   -0.6002
   11   -0.5709
   12   -0.5305
   13   -0.5168
   14   -0.4823
   15   -0.4472
   16    0.1615
   17    0.2052
   18    0.2362
   19    0.2565
   20    0.3383
   21    0.4160
   22    0.7360
   23    0.7545
   24    0.8223
   25    0.8338

                       ROHF Final Molecular Orbital Analysis
                       -------------------------------------

 Vector    4  Occ=2.000000D+00  E=-1.355390D+00
              MO Center=  5.5D-01,  1.6D+00,  3.7D-02, r^2= 1.4D+00
   Bfn.  Coefficient  Atom+Function         Bfn.  Coefficient  Atom+Function  
  ----- ------------  ---------------      ----- ------------  ---------------
     2      0.418043  1 O  s                  3      0.368576  1 O  s          
    20      0.176951  3 H  s                 15      0.165718  2 H  s          

 Vector    5  Occ=2.000000D+00  E=-1.341588D+00
              MO Center= -7.4D-01, -1.7D-03,  8.3D-01, r^2= 1.6D+00
   Bfn.  Coefficient  Atom+Function         Bfn.  Coefficient  Atom+Function  
  ----- ------------  ---------------      ----- ------------  ---------------
    26      0.413390  4 O  s                 27      0.368998  4 O  s          
    44      0.169106  6 H  s                 39      0.164889  5 H  s          
     2     -0.155011  1 O  s          

 Vector    6  Occ=2.000000D+00  E=-1.279432D+00
              MO Center=  1.9D-01, -1.6D+00, -8.6D-01, r^2= 6.9D-01
   Bfn.  Coefficient  Atom+Function         Bfn.  Coefficient  Atom+Function  
  ----- ------------  ---------------      ----- ------------  ---------------
    50      0.438013  7 O  s                 51      0.393419  7 O  s          
    63      0.190551  8 H  s                 68      0.166226  9 H  s          

 Vector    7  Occ=2.000000D+00  E=-7.197836D-01
              MO Center=  5.8D-01,  1.7D+00,  3.9D-02, r^2= 1.7D+00
   Bfn.  Coefficient  Atom+Function         Bfn.  Coefficient  Atom+Function  
  ----- ------------  ---------------      ----- ------------  ---------------
     5      0.434675  1 O  py                20      0.316849  3 H  s          
    15     -0.277574  2 H  s                  8      0.206530  1 O  py         

 Vector    8  Occ=2.000000D+00  E=-6.987626D-01
              MO Center= -7.1D-01,  1.5D-01,  8.1D-01, r^2= 1.9D+00
   Bfn.  Coefficient  Atom+Function         Bfn.  Coefficient  Atom+Function  
  ----- ------------  ---------------      ----- ------------  ---------------
    28      0.392686  4 O  px                39      0.287832  5 H  s          
    44     -0.287650  6 H  s                 29      0.217143  4 O  py         
    31      0.190810  4 O  px                15     -0.151934  2 H  s          

 Vector    9  Occ=2.000000D+00  E=-6.631079D-01
              MO Center=  3.1D-02, -1.5D+00, -5.8D-01, r^2= 1.6D+00
   Bfn.  Coefficient  Atom+Function         Bfn.  Coefficient  Atom+Function  
  ----- ------------  ---------------      ----- ------------  ---------------
    53      0.344824  7 O  py                68      0.298628  9 H  s          
    63     -0.292291  8 H  s                 54      0.256910  7 O  pz         
    29     -0.163702  4 O  py                56      0.157771  7 O  py         

 Vector   10  Occ=2.000000D+00  E=-6.001863D-01
              MO Center=  2.6D-02,  9.3D-01,  2.9D-01, r^2= 2.9D+00
   Bfn.  Coefficient  Atom+Function         Bfn.  Coefficient  Atom+Function  
  ----- ------------  ---------------      ----- ------------  ---------------
     4      0.400695  1 O  px                 7      0.269110  1 O  px         
     3     -0.251874  1 O  s                 27      0.222396  4 O  s          
    29     -0.193751  4 O  py                28      0.181035  4 O  px         
    15      0.167729  2 H  s                 44     -0.166826  6 H  s          
    30      0.158292  4 O  pz         

 Vector   11  Occ=2.000000D+00  E=-5.708694D-01
              MO Center= -2.5D-01,  2.6D-01,  4.4D-01, r^2= 3.2D+00
   Bfn.  Coefficient  Atom+Function         Bfn.  Coefficient  Atom+Function  
  ----- ------------  ---------------      ----- ------------  ---------------
    29      0.373476  4 O  py                 4      0.307416  1 O  px         
    32      0.253986  4 O  py                27     -0.218025  4 O  s          
     3     -0.215314  1 O  s                  7      0.202267  1 O  px         
    39      0.161253  5 H  s                 53      0.159582  7 O  py         

 Vector   12  Occ=2.000000D+00  E=-5.305172D-01
              MO Center= -5.4D-02, -9.6D-01, -3.0D-01, r^2= 2.8D+00
   Bfn.  Coefficient  Atom+Function         Bfn.  Coefficient  Atom+Function  
  ----- ------------  ---------------      ----- ------------  ---------------
    30      0.340466  4 O  pz                53      0.292376  7 O  py         
    51      0.276157  7 O  s                 33      0.263278  4 O  pz         
    52      0.212109  7 O  px                54     -0.209681  7 O  pz         
    63     -0.206307  8 H  s                 56      0.187454  7 O  py         
    55      0.153774  7 O  px                57     -0.154345  7 O  pz         

 Vector   13  Occ=2.000000D+00  E=-5.167930D-01
              MO Center=  5.3D-01,  1.6D+00, -3.9D-02, r^2= 1.3D+00
   Bfn.  Coefficient  Atom+Function         Bfn.  Coefficient  Atom+Function  
  ----- ------------  ---------------      ----- ------------  ---------------
     6      0.590728  1 O  pz                 9      0.461781  1 O  pz         

 Vector   14  Occ=2.000000D+00  E=-4.823088D-01
              MO Center= -4.5D-01, -7.9D-01,  2.6D-01, r^2= 2.4D+00
   Bfn.  Coefficient  Atom+Function         Bfn.  Coefficient  Atom+Function  
  ----- ------------  ---------------      ----- ------------  ---------------
    30      0.443420  4 O  pz                33      0.353240  4 O  pz         
    54      0.305201  7 O  pz                57      0.216642  7 O  pz         
    52     -0.187946  7 O  px                29      0.175974  4 O  py         
    28     -0.166801  4 O  px                68      0.161862  9 H  s          

 Vector   15  Occ=2.000000D+00  E=-4.472231D-01
              MO Center=  2.9D-01, -1.6D+00, -9.8D-01, r^2= 6.4D-01
   Bfn.  Coefficient  Atom+Function         Bfn.  Coefficient  Atom+Function  
  ----- ------------  ---------------      ----- ------------  ---------------
    52      0.515243  7 O  px                55      0.416979  7 O  px         
    54      0.337280  7 O  pz                57      0.272088  7 O  pz         

 Vector   16  Occ=0.000000D+00  E= 1.615295D-01
              MO Center=  5.7D-01,  1.5D+00,  6.4D-02, r^2= 5.8D+00
   Bfn.  Coefficient  Atom+Function         Bfn.  Coefficient  Atom+Function  
  ----- ------------  ---------------      ----- ------------  ---------------
     3      0.848369  1 O  s                 21     -0.776107  3 H  s          
    16     -0.577979  2 H  s                 45     -0.479600  6 H  s          
    27      0.402265  4 O  s                 64     -0.263464  8 H  s          
     7      0.230955  1 O  px                51      0.207536  7 O  s          
    40     -0.157011  5 H  s          

 Vector   17  Occ=0.000000D+00  E= 2.052088D-01
              MO Center= -9.3D-01,  2.4D-01,  2.6D-01, r^2= 7.6D+00
   Bfn.  Coefficient  Atom+Function         Bfn.  Coefficient  Atom+Function  
  ----- ------------  ---------------      ----- ------------  ---------------
    45      1.092968  6 H  s                 21     -0.668438  3 H  s          
    27     -0.657044  4 O  s                 64      0.515713  8 H  s          
     3      0.457302  1 O  s                 31      0.322803  4 O  px         
    51     -0.311284  7 O  s                  8      0.169657  1 O  py         
    28      0.153415  4 O  px         

 Vector   18  Occ=0.000000D+00  E= 2.362025D-01
              MO Center=  1.0D-01, -8.3D-01, -4.6D-01, r^2= 8.5D+00
   Bfn.  Coefficient  Atom+Function         Bfn.  Coefficient  Atom+Function  
  ----- ------------  ---------------      ----- ------------  ---------------
    64      1.016429  8 H  s                 16      0.804952  2 H  s          
    21     -0.692899  3 H  s                 45     -0.645185  6 H  s          
    51     -0.627265  7 O  s                 27      0.373476  4 O  s          
    56      0.321289  7 O  py                 8      0.302443  1 O  py         
    31     -0.200308  4 O  px                 7     -0.152382  1 O  px         

 Vector   19  Occ=0.000000D+00  E= 2.564822D-01
              MO Center=  9.4D-01,  3.4D-01, -4.4D-01, r^2= 8.4D+00
   Bfn.  Coefficient  Atom+Function         Bfn.  Coefficient  Atom+Function  
  ----- ------------  ---------------      ----- ------------  ---------------
    16      1.238737  2 H  s                 21     -1.033334  3 H  s          
    64     -0.859464  8 H  s                  8      0.481977  1 O  py         
    51      0.452759  7 O  s                 56     -0.275834  7 O  py         
     7     -0.234140  1 O  px                45      0.234798  6 H  s          
     5      0.205917  1 O  py         

 Vector   20  Occ=0.000000D+00  E= 3.382680D-01
              MO Center= -4.3D-01,  6.9D-01,  1.0D+00, r^2= 3.4D+00
   Bfn.  Coefficient  Atom+Function         Bfn.  Coefficient  Atom+Function  
  ----- ------------  ---------------      ----- ------------  ---------------
    40      1.913710  5 H  s                 45     -0.941954  6 H  s          
    27     -0.543005  4 O  s                 31     -0.478266  4 O  px         
    32     -0.438193  4 O  py                16     -0.324449  2 H  s          
    21     -0.309700  3 H  s                  7      0.254405  1 O  px         
     8      0.219098  1 O  py                29     -0.195442  4 O  py         

 Vector   21  Occ=0.000000D+00  E= 4.160163D-01
              MO Center= -2.3D-01, -1.3D+00, -8.5D-02, r^2= 3.7D+00
   Bfn.  Coefficient  Atom+Function         Bfn.  Coefficient  Atom+Function  
  ----- ------------  ---------------      ----- ------------  ---------------
    69      2.256851  9 H  s                 64     -0.952473  8 H  s          
    51     -0.649089  7 O  s                 57     -0.493748  7 O  pz         
    40     -0.477859  5 H  s                 56     -0.433768  7 O  py         
    45     -0.367875  6 H  s                 32      0.308700  4 O  py         
    55      0.246851  7 O  px                33      0.233031  4 O  pz         

 Vector   22  Occ=0.000000D+00  E= 7.359547D-01
              MO Center=  4.8D-01,  8.2D-01, -1.2D-01, r^2= 4.2D+00
   Bfn.  Coefficient  Atom+Function         Bfn.  Coefficient  Atom+Function  
  ----- ------------  ---------------      ----- ------------  ---------------
    15      0.792955  2 H  s                 20     -0.730114  3 H  s          
    68      0.554301  9 H  s                 16     -0.521306  2 H  s          
    21      0.462821  3 H  s                 69     -0.422156  9 H  s          
     8      0.402176  1 O  py                44     -0.322930  6 H  s          
    63     -0.320242  8 H  s                 40      0.267657  5 H  s          

 Vector   23  Occ=0.000000D+00  E= 7.544799D-01
              MO Center= -9.1D-01, -6.8D-02,  8.4D-01, r^2= 2.3D+00
   Bfn.  Coefficient  Atom+Function         Bfn.  Coefficient  Atom+Function  
  ----- ------------  ---------------      ----- ------------  ---------------
    39      0.942315  5 H  s                 40     -0.895418  5 H  s          
    44     -0.856971  6 H  s                 45      0.702937  6 H  s          
    31     -0.351285  4 O  px                20      0.240408  3 H  s          
     8     -0.209351  1 O  py                63     -0.200843  8 H  s          
    28     -0.185800  4 O  px                32     -0.161718  4 O  py         

 Vector   24  Occ=0.000000D+00  E= 8.223359D-01
              MO Center=  9.3D-01,  1.9D+00, -9.0D-02, r^2= 3.1D+00
   Bfn.  Coefficient  Atom+Function         Bfn.  Coefficient  Atom+Function  
  ----- ------------  ---------------      ----- ------------  ---------------
    20      0.908222  3 H  s                 21     -0.663873  3 H  s          
    15      0.608130  2 H  s                 16     -0.408470  2 H  s          
    68      0.298566  9 H  s                 69     -0.290868  9 H  s          
     3      0.285295  1 O  s                 23      0.281711  3 H  py         
     2     -0.256862  1 O  s                  4     -0.251710  1 O  px         

 Vector   25  Occ=0.000000D+00  E= 8.338214D-01
              MO Center=  2.7D-03, -2.8D-01, -3.2D-02, r^2= 4.6D+00
   Bfn.  Coefficient  Atom+Function         Bfn.  Coefficient  Atom+Function  
  ----- ------------  ---------------      ----- ------------  ---------------
    69      1.136477  9 H  s                 68     -0.846237  9 H  s          
    16     -0.663122  2 H  s                 15      0.635919  2 H  s          
    44      0.533154  6 H  s                 45     -0.498167  6 H  s          
    21      0.374000  3 H  s                 20     -0.292344  3 H  s          
    51     -0.276983  7 O  s                 39      0.260291  5 H  s          


 center of mass
 --------------
 x =  -0.00050278 y =  -0.02144097 z =  -0.00811788

 moments of inertia (a.u.)
 ------------------
         534.188295657791         -70.325020488700          84.393261966776
         -70.325020488700         229.508763405224         -68.691074301463
          84.393261966776         -68.691074301463         498.452698899100

  Mulliken analysis of the total density
  --------------------------------------

    Atom       Charge   Shell Charges
 -----------   ------   -------------------------------------------------------
    1 O    8     8.33   2.00  0.83  0.84  2.82  1.83  0.01
    2 H    1     0.81   0.65  0.07  0.08
    3 H    1     0.83   0.68  0.07  0.08
    4 O    8     8.35   2.00  0.83  0.84  2.82  1.83  0.01
    5 H    1     0.81   0.64  0.08  0.08
    6 H    1     0.82   0.67  0.07  0.08
    7 O    8     8.41   2.00  0.83  0.85  2.82  1.90  0.01
    8 H    1     0.85   0.69  0.08  0.08
    9 H    1     0.80   0.62  0.09  0.09

       Multipole analysis of the density wrt the origin
       ------------------------------------------------

     L   x y z        total         open         nuclear
     -   - - -        -----         ----         -------
     0   0 0 0     -0.000000      0.000000     30.000000

     1   1 0 0      0.004844      0.000000      0.000000
     1   0 1 0      0.850194      0.000000     -0.000000
     1   0 0 1      0.350680      0.000000      0.000000

     2   2 0 0     -9.637072      0.000000     59.823988
     2   1 1 0      3.454841      0.000000     42.742791
     2   1 0 1      0.544513      0.000000    -46.165053
     2   0 2 0     -7.312776      0.000000    231.788493
     2   0 1 1      1.166068      0.000000     39.835418
     2   0 0 2    -17.874563      0.000000     71.082168


 Parallel integral file used      53 records with       0 large values

                              NWChem Gradients Module
                              -----------------------



  wavefunction    =   RHF     



                         RHF ENERGY GRADIENTS

    atom               coordinates                        gradient
                 x          y          z           x          y          z
   1 O       1.144490   3.471415  -0.179185   -0.035336   0.001814   0.000382
   2 H       2.703212   2.513576  -0.531399    0.032281  -0.020077  -0.005152
   3 H       1.682417   5.181284   0.155071    0.003898   0.019550   0.003903
   4 O      -1.723878  -0.672060   2.017538    0.028039  -0.029284   0.006327
   5 H      -0.889447   0.955028   1.804985    0.008232   0.018486  -0.000090
   6 H      -3.431464  -0.361289   1.369956   -0.030593   0.005358  -0.012420
   7 O       0.575963  -2.945402  -1.893649    0.017906   0.009972  -0.023881
   8 H       0.307370  -4.745668  -2.001910   -0.002600  -0.021347  -0.003255
   9 H      -0.344690  -2.374554  -0.354337   -0.021827   0.015528   0.034188

                 ----------------------------------------
                 |  Time  |  1-e(secs)   |  2-e(secs)   |
                 ----------------------------------------
                 |  CPU   |       0.01   |       0.67   |
                 ----------------------------------------
                 |  WALL  |       0.01   |       0.67   |
                 ----------------------------------------

 Task  times  cpu:        2.1s     wall:        2.1s


                                NWChem Input Module
                                -------------------


 Summary of allocated global arrays
-----------------------------------
  No active global arrays



                         GA Statistics for process    0
                         ------------------------------

       create   destroy   get      put      acc     scatter   gather  read&inc
calls:  268      268     8617     3877     3533        0        0      141     
number of processes/call 0.00e+00 0.00e+00 0.00e+00 0.00e+00 0.00e+00
bytes total:             1.45e+07 8.66e+06 2.14e+06 0.00e+00 0.00e+00 1.13e+03
bytes remote:            0.00e+00 0.00e+00 0.00e+00 0.00e+00 0.00e+00 0.00e+00
Max memory consumed for GA by this process: 539136 bytes

MA_summarize_allocated_blocks: starting scan ...
MA_summarize_allocated_blocks: scan completed: 0 heap blocks, 0 stack blocks
MA usage statistics:

	allocation statistics:
					      heap	     stack
					      ----	     -----
	current number of blocks	         0	         0
	maximum number of blocks	        18	        28
	current total bytes		         0	         0
	maximum total bytes		  57703080	  26171400
	maximum total K-bytes		     57704	     26172
	maximum total M-bytes		        58	        27


                                     CITATION
                                     --------
                Please cite the following reference when publishing
                           results obtained with NWChem:

          E. Aprà, E. J. Bylaska, W. A. de Jong, N. Govind, K. Kowalski,
       T. P. Straatsma, M. Valiev, H. J. J. van Dam, Y. Alexeev, J. Anchell,
       V. Anisimov, F. W. Aquino, R. Atta-Fynn, J. Autschbach, N. P. Bauman,
     J. C. Becca, D. E. Bernholdt, K. Bhaskaran-Nair, S. Bogatko, P. Borowski,
        J. Boschen, J. Brabec, A. Bruner, E. Cauët, Y. Chen, G. N. Chuev,
      C. J. Cramer, J. Daily, M. J. O. Deegan, T. H. Dunning Jr., M. Dupuis,
   K. G. Dyall, G. I. Fann, S. A. Fischer, A. Fonari, H. Früchtl, L. Gagliardi,
      J. Garza, N. Gawande, S. Ghosh, K. Glaesemann, A. W. Götz, J. Hammond,
       V. Helms, E. D. Hermes, K. Hirao, S. Hirata, M. Jacquelin, L. Jensen,
   B. G. Johnson, H. Jónsson, R. A. Kendall, M. Klemm, R. Kobayashi, V. Konkov,
      S. Krishnamoorthy, M. Krishnan, Z. Lin, R. D. Lins, R. J. Littlefield,
      A. J. Logsdail, K. Lopata, W. Ma, A. V. Marenich, J. Martin del Campo,
   D. Mejia-Rodriguez, J. E. Moore, J. M. Mullin, T. Nakajima, D. R. Nascimento,
    J. A. Nichols, P. J. Nichols, J. Nieplocha, A. Otero-de-la-Roza, B. Palmer,
    A. Panyala, T. Pirojsirikul, B. Peng, R. Peverati, J. Pittner, L. Pollack,
   R. M. Richard, P. Sadayappan, G. C. Schatz, W. A. Shelton, D. W. Silverstein,
   D. M. A. Smith, T. A. Soares, D. Song, M. Swart, H. L. Taylor, G. S. Thomas,
            V. Tipparaju, D. G. Truhlar, K. Tsemekhman, T. Van Voorhis,
     Á. Vázquez-Mayagoitia, P. Verma, O. Villa, A. Vishnu, K. D. Vogiatzis,
        D. Wang, J. H. Weare, M. J. Williamson, T. L. Windus, K. Woliński,
        A. T. Wong, Q. Wu, C. Yang, Q. Yu, M. Zacharias, Z. Zhang, Y. Zhao,
                                and R. J. Harrison
                        "NWChem: Past, present, and future
                         J. Chem. Phys. 152, 184102 (2020)
                               doi:10.1063/5.0004997

                                      AUTHORS
                                      -------
     E. Apra, E. J. Bylaska, N. Govind, K. Kowalski, M. Valiev, W. A. de Jong,
      T. P. Straatsma, H. J. J. van Dam, D. Wang, T. L. Windus, N. P. Bauman,
       A. Panyala, J. Hammond, J. Autschbach, K. Bhaskaran-Nair, J. Brabec,
    K. Lopata, S. A. Fischer, S. Krishnamoorthy, M. Jacquelin, W. Ma, M. Klemm,
       O. Villa, Y. Chen, V. Anisimov, F. Aquino, S. Hirata, M. T. Hackler,
           Eric Hermes, L. Jensen, J. E. Moore, J. C. Becca, V. Konjkov,
            D. Mejia-Rodriguez, T. Risthaus, M. Malagoli, A. Marenich,
   A. Otero-de-la-Roza, J. Mullin, P. Nichols, R. Peverati, J. Pittner, Y. Zhao,
        P.-D. Fan, A. Fonari, M. J. Williamson, R. J. Harrison, J. R. Rehr,
      M. Dupuis, D. Silverstein, D. M. A. Smith, J. Nieplocha, V. Tipparaju,
      M. Krishnan, B. E. Van Kuiken, A. Vazquez-Mayagoitia, M. Swart, Q. Wu,
   T. Van Voorhis, A. A. Auer, M. Nooijen, L. D. Crosby, E. Brown, G. Cisneros,
     G. I. Fann, H. Fruchtl, J. Garza, K. Hirao, R. A. Kendall, J. A. Nichols,
       K. Tsemekhman, K. Wolinski, J. Anchell, D. E. Bernholdt, P. Borowski,
       T. Clark, D. Clerc, H. Dachsel, M. J. O. Deegan, K. Dyall, D. Elwood,
      E. Glendening, M. Gutowski, A. C. Hess, J. Jaffe, B. G. Johnson, J. Ju,
        R. Kobayashi, R. Kutteh, Z. Lin, R. Littlefield, X. Long, B. Meng,
      T. Nakajima, S. Niu, L. Pollack, M. Rosing, K. Glaesemann, G. Sandrone,
      M. Stave, H. Taylor, G. Thomas, J. H. van Lenthe, A. T. Wong, Z. Zhang.

 Total times  cpu:        2.1s     wall:        2.1s
