 argument  1 = nwchem/input_2_6_at_worker_3.nw



============================== echo of input deck ==============================
echo
memory 1000 mb
geometry noautosym noautoz
O -0.82054445 0.61636011 -1.6312343
H -0.26682713 1.17302621 -1.05309865
H -0.36885969 -0.24447946 -1.58195952
O -0.64071556 -0.48854013 1.6410419
H -0.19915392 0.37247798 1.5285638
H -1.54433112 -0.32408724 1.298356
end
basis spherical
 * library cc-pvdz
end
task scf gradient
================================================================================


                                         
                                         


             Northwest Computational Chemistry Package (NWChem) 7.0.2
             --------------------------------------------------------


                    Environmental Molecular Sciences Laboratory
                       Pacific Northwest National Laboratory
                                Richland, WA 99352

                              Copyright (c) 1994-2020
                       Pacific Northwest National Laboratory
                            Battelle Memorial Institute

             NWChem is an open-source computational chemistry package
                        distributed under the terms of the
                      Educational Community License (ECL) 2.0
             A copy of the license is included with this distribution
                              in the LICENSE.TXT file

                                  ACKNOWLEDGMENT
                                  --------------

            This software and its documentation were developed at the
            EMSL at Pacific Northwest National Laboratory, a multiprogram
            national laboratory, operated for the U.S. Department of Energy
            by Battelle under Contract Number DE-AC05-76RL01830. Support
            for this work was provided by the Department of Energy Office
            of Biological and Environmental Research, Office of Basic
            Energy Sciences, and the Office of Advanced Scientific Computing.


           Job information
           ---------------

    hostname        = pop-os
    program         = nwchem
    date            = Thu Jul  8 18:22:16 2021

    compiled        = Wed_Jan_06_19:48:08_2021
    source          = /build/nwchem-ksKH2r/nwchem-7.0.2
    nwchem branch   = 7.0.2
    nwchem revision = N/A
    ga revision     = 5.7.1
    use scalapack   = T
    input           = nwchem/input_2_6_at_worker_3.nw
    prefix          = input_2_6_at_worker_3.
    data base       = ./input_2_6_at_worker_3.db
    status          = startup
    nproc           =        1
    time left       =     -1s



           Memory information
           ------------------

    heap     =   32767998 doubles =    250.0 Mbytes
    stack    =   32767995 doubles =    250.0 Mbytes
    global   =   65536000 doubles =    500.0 Mbytes (distinct from heap & stack)
    total    =  131071993 doubles =   1000.0 Mbytes
    verify   = yes
    hardfail = no 


           Directory information
           ---------------------

  0 permanent = .
  0 scratch   = .




                                NWChem Input Module
                                -------------------



 Scaling coordinates for geometry "geometry" by  1.889725989
 (inverse scale =  0.529177249)



                             Geometry "geometry" -> ""
                             -------------------------

 Output coordinates in angstroms (scale by  1.889725989 to convert to a.u.)

  No.       Tag          Charge          X              Y              Z
 ---- ---------------- ---------- -------------- -------------- --------------
    1 O                    8.0000    -0.11708185     0.51638524    -1.64475042
    2 H                    1.0000     0.43663547     1.07305134    -1.06661477
    3 H                    1.0000     0.33460291    -0.34445433    -1.59547564
    4 O                    8.0000     0.06274704    -0.58851500     1.62752578
    5 H                    1.0000     0.50430868     0.27250311     1.51504768
    6 H                    1.0000    -0.84086852    -0.42406211     1.28483988

      Atomic Mass 
      ----------- 

      O                 15.994910
      H                  1.007825


 Effective nuclear repulsion energy (a.u.)      33.8305418086

            Nuclear Dipole moment (a.u.) 
            ----------------------------
        X                 Y               Z
 ---------------- ---------------- ----------------
    -0.0000000000    -0.0000000000     0.0000000000


            XYZ format geometry
            -------------------
     6
 geometry
 O                    -0.11708185     0.51638524    -1.64475042
 H                     0.43663547     1.07305134    -1.06661477
 H                     0.33460291    -0.34445433    -1.59547564
 O                     0.06274704    -0.58851500     1.62752578
 H                     0.50430868     0.27250311     1.51504768
 H                    -0.84086852    -0.42406211     1.28483988

 ==============================================================================
                                internuclear distances
 ------------------------------------------------------------------------------
       center one      |      center two      | atomic units |  angstroms
 ------------------------------------------------------------------------------
    2 H                |   1 O                |     1.84258  |     0.97505
    3 H                |   1 O                |     1.83944  |     0.97339
    5 H                |   4 O                |     1.84089  |     0.97416
    6 H                |   4 O                |     1.85251  |     0.98031
 ------------------------------------------------------------------------------
                         number of included internuclear distances:          4
 ==============================================================================



 ==============================================================================
                                 internuclear angles
 ------------------------------------------------------------------------------
        center 1       |       center 2       |       center 3       |  degrees
 ------------------------------------------------------------------------------
    2 H                |   1 O                |   3 H                |   102.20
    5 H                |   4 O                |   6 H                |   103.25
 ------------------------------------------------------------------------------
                            number of included internuclear angles:          2
 ==============================================================================





 Summary of "ao basis" -> "" (spherical)
 ------------------------------------------------------------------------------
       Tag                 Description            Shells   Functions and Types
 ---------------- ------------------------------  ------  ---------------------
 *                          cc-pvdz                   on all atoms 


                      Basis "ao basis" -> "ao basis" (spherical)
                      -----
  O (Oxygen)
  ----------
            Exponent  Coefficients 
       -------------- ---------------------------------------------------------
  1 S  1.17200000E+04  0.000710
  1 S  1.75900000E+03  0.005470
  1 S  4.00800000E+02  0.027837
  1 S  1.13700000E+02  0.104800
  1 S  3.70300000E+01  0.283062
  1 S  1.32700000E+01  0.448719
  1 S  5.02500000E+00  0.270952
  1 S  1.01300000E+00  0.015458

  2 S  1.17200000E+04 -0.000160
  2 S  1.75900000E+03 -0.001263
  2 S  4.00800000E+02 -0.006267
  2 S  1.13700000E+02 -0.025716
  2 S  3.70300000E+01 -0.070924
  2 S  1.32700000E+01 -0.165411
  2 S  5.02500000E+00 -0.116955
  2 S  1.01300000E+00  0.557368

  3 S  3.02300000E-01  1.000000

  4 P  1.77000000E+01  0.043018
  4 P  3.85400000E+00  0.228913
  4 P  1.04600000E+00  0.508728

  5 P  2.75300000E-01  1.000000

  6 D  1.18500000E+00  1.000000

  H (Hydrogen)
  ------------
            Exponent  Coefficients 
       -------------- ---------------------------------------------------------
  1 S  1.30100000E+01  0.019685
  1 S  1.96200000E+00  0.137977
  1 S  4.44600000E-01  0.478148

  2 S  1.22000000E-01  1.000000

  3 P  7.27000000E-01  1.000000



 Summary of "ao basis" -> "ao basis" (spherical)
 ------------------------------------------------------------------------------
       Tag                 Description            Shells   Functions and Types
 ---------------- ------------------------------  ------  ---------------------
 O                          cc-pvdz                  6       14   3s2p1d
 H                          cc-pvdz                  3        5   2s1p


                                 NWChem SCF Module
                                 -----------------



  ao basis        = "ao basis"
  functions       =    48
  atoms           =     6
  closed shells   =    10
  open shells     =     0
  charge          =   0.00
  wavefunction    = RHF 
  input vectors   = atomic
  output vectors  = ./input_2_6_at_worker_3.movecs
  use symmetry    = F
  symmetry adapt  = F


 Summary of "ao basis" -> "ao basis" (spherical)
 ------------------------------------------------------------------------------
       Tag                 Description            Shells   Functions and Types
 ---------------- ------------------------------  ------  ---------------------
 O                          cc-pvdz                  6       14   3s2p1d
 H                          cc-pvdz                  3        5   2s1p



 Forming initial guess at       0.0s


      Superposition of Atomic Density Guess
      -------------------------------------

 Sum of atomic energies:        -151.52445821

      Non-variational initial energy
      ------------------------------

 Total energy =    -151.788189
 1-e energy   =    -274.564820
 2-e energy   =      88.946089
 HOMO         =      -0.459396
 LUMO         =       0.054134


 Starting SCF solution at       0.1s



 ----------------------------------------------
         Quadratically convergent ROHF

 Convergence threshold     :          1.000E-04
 Maximum no. of iterations :           30
 Final Fock-matrix accuracy:          1.000E-07
 ----------------------------------------------


 Integral file          = ./input_2_6_at_worker_3.aoints.0
 Record size in doubles =  65536        No. of integs per rec  =  43688
 Max. records in memory =     23        Max. records in file   = 400238
 No. of bits per label  =      8        No. of bits per value  =     64


 #quartets = 3.868D+04 #integrals = 5.073D+05 #direct =  0.0% #cached =100.0%


              iter       energy          gnorm     gmax       time
             ----- ------------------- --------- --------- --------
                 1     -151.9832559687  1.17D+00  3.36D-01      0.2
                 2     -152.0484227394  2.48D-01  7.37D-02      0.3
                 3     -152.0531306361  2.20D-02  6.63D-03      0.3
                 4     -152.0531694721  3.81D-04  8.50D-05      0.3
                 5     -152.0531694830  6.61D-06  2.16D-06      0.3


       Final RHF  results 
       ------------------ 

         Total SCF energy =   -152.053169483002
      One-electron energy =   -277.094125632499
      Two-electron energy =     91.210414340890
 Nuclear repulsion energy =     33.830541808607

        Time for solution =      0.2s


             Final eigenvalues
             -----------------

              1      
    1  -20.5635
    2  -20.5623
    3   -1.3387
    4   -1.3347
    5   -0.6953
    6   -0.6926
    7   -0.5778
    8   -0.5719
    9   -0.5046
   10   -0.4953
   11    0.1475
   12    0.2242
   13    0.2306
   14    0.2819
   15    0.7613
   16    0.7667
   17    0.8237
   18    0.8736
   19    1.1395
   20    1.1648

                       ROHF Final Molecular Orbital Analysis
                       -------------------------------------

 Vector    2  Occ=2.000000D+00  E=-2.056232D+01
              MO Center=  6.3D-02, -5.9D-01,  1.6D+00, r^2= 1.5D-02
   Bfn.  Coefficient  Atom+Function         Bfn.  Coefficient  Atom+Function  
  ----- ------------  ---------------      ----- ------------  ---------------
    25      1.000864  4 O  s          

 Vector    3  Occ=2.000000D+00  E=-1.338664D+00
              MO Center=  2.2D-02,  4.0D-01, -1.3D+00, r^2= 1.3D+00
   Bfn.  Coefficient  Atom+Function         Bfn.  Coefficient  Atom+Function  
  ----- ------------  ---------------      ----- ------------  ---------------
     2      0.426406  1 O  s                  3      0.370230  1 O  s          
    15      0.180029  2 H  s                 20      0.179150  3 H  s          

 Vector    4  Occ=2.000000D+00  E=-1.334709D+00
              MO Center=  4.4D-03, -3.7D-01,  1.3D+00, r^2= 1.3D+00
   Bfn.  Coefficient  Atom+Function         Bfn.  Coefficient  Atom+Function  
  ----- ------------  ---------------      ----- ------------  ---------------
    26      0.426936  4 O  s                 27      0.375162  4 O  s          
    39      0.180880  5 H  s                 44      0.176140  6 H  s          

 Vector    5  Occ=2.000000D+00  E=-6.952613D-01
              MO Center=  3.9D-02,  1.5D-01, -3.8D-01, r^2= 3.1D+00
   Bfn.  Coefficient  Atom+Function         Bfn.  Coefficient  Atom+Function  
  ----- ------------  ---------------      ----- ------------  ---------------
     5      0.361910  1 O  py                15      0.257591  2 H  s          
    28      0.257769  4 O  px                20     -0.253176  3 H  s          
    39      0.200065  5 H  s                 44     -0.192577  6 H  s          
     8      0.170469  1 O  py         

 Vector    6  Occ=2.000000D+00  E=-6.925854D-01
              MO Center=  9.6D-03, -7.9D-02,  4.0D-01, r^2= 3.2D+00
   Bfn.  Coefficient  Atom+Function         Bfn.  Coefficient  Atom+Function  
  ----- ------------  ---------------      ----- ------------  ---------------
    28      0.340956  4 O  px                 5     -0.280637  1 O  py         
    39      0.256784  5 H  s                 44     -0.254956  6 H  s          
    20      0.198160  3 H  s                 15     -0.195523  2 H  s          
    29      0.176296  4 O  py                31      0.161686  4 O  px         

 Vector    7  Occ=2.000000D+00  E=-5.778251D-01
              MO Center= -1.0D-01,  3.1D-01, -1.0D+00, r^2= 2.6D+00
   Bfn.  Coefficient  Atom+Function         Bfn.  Coefficient  Atom+Function  
  ----- ------------  ---------------      ----- ------------  ---------------
     4      0.392350  1 O  px                 3     -0.315629  1 O  s          
     7      0.260452  1 O  px                 6      0.256762  1 O  pz         
    20      0.189303  3 H  s                 15      0.186632  2 H  s          
    29      0.185379  4 O  py                 9      0.172594  1 O  pz         
    27     -0.151950  4 O  s          

 Vector    8  Occ=2.000000D+00  E=-5.718697D-01
              MO Center=  3.2D-02, -4.0D-01,  1.0D+00, r^2= 2.6D+00
   Bfn.  Coefficient  Atom+Function         Bfn.  Coefficient  Atom+Function  
  ----- ------------  ---------------      ----- ------------  ---------------
    29      0.417759  4 O  py                27     -0.306907  4 O  s          
    32      0.282136  4 O  py                 4     -0.212410  1 O  px         
    28     -0.189896  4 O  px                39      0.189982  5 H  s          
    44      0.187550  6 H  s                 30     -0.171030  4 O  pz         

 Vector    9  Occ=2.000000D+00  E=-5.045706D-01
              MO Center= -3.6D-02,  5.6D-02, -2.8D-01, r^2= 3.4D+00
   Bfn.  Coefficient  Atom+Function         Bfn.  Coefficient  Atom+Function  
  ----- ------------  ---------------      ----- ------------  ---------------
     6      0.365019  1 O  pz                30     -0.357469  4 O  pz         
     9      0.292111  1 O  pz                 4     -0.286860  1 O  px         
    33     -0.286216  4 O  pz                 7     -0.224485  1 O  px         

 Vector   10  Occ=2.000000D+00  E=-4.953213D-01
              MO Center= -6.9D-03, -1.1D-01,  2.7D-01, r^2= 3.5D+00
   Bfn.  Coefficient  Atom+Function         Bfn.  Coefficient  Atom+Function  
  ----- ------------  ---------------      ----- ------------  ---------------
    30      0.453927  4 O  pz                33      0.352032  4 O  pz         
     6      0.335356  1 O  pz                 9      0.257795  1 O  pz         
     4     -0.210199  1 O  px                 7     -0.163553  1 O  px         

 Vector   11  Occ=0.000000D+00  E= 1.475399D-01
              MO Center=  3.2D-01,  4.5D-01,  1.3D-01, r^2= 4.1D+00
   Bfn.  Coefficient  Atom+Function         Bfn.  Coefficient  Atom+Function  
  ----- ------------  ---------------      ----- ------------  ---------------
    16     -0.663966  2 H  s                 40     -0.664282  5 H  s          
     3      0.614980  1 O  s                 27      0.607539  4 O  s          
    21     -0.352385  3 H  s                 45     -0.340553  6 H  s          
    32      0.227660  4 O  py                 7      0.183988  1 O  px         
     9      0.166311  1 O  pz         

 Vector   12  Occ=0.000000D+00  E= 2.242104D-01
              MO Center=  1.2D-01, -2.2D-01, -3.3D-01, r^2= 5.4D+00
   Bfn.  Coefficient  Atom+Function         Bfn.  Coefficient  Atom+Function  
  ----- ------------  ---------------      ----- ------------  ---------------
    21      1.043911  3 H  s                  3     -0.751850  1 O  s          
    27      0.699610  4 O  s                 45     -0.644874  6 H  s          
    40     -0.532554  5 H  s                  8      0.244872  1 O  py         
    16      0.227306  2 H  s                  7     -0.213190  1 O  px         
    32      0.198537  4 O  py         

 Vector   13  Occ=0.000000D+00  E= 2.306347D-01
              MO Center= -2.8D-01, -4.3D-02,  2.1D-01, r^2= 5.1D+00
   Bfn.  Coefficient  Atom+Function         Bfn.  Coefficient  Atom+Function  
  ----- ------------  ---------------      ----- ------------  ---------------
    45      1.198881  6 H  s                 16     -0.862471  2 H  s          
    21      0.859640  3 H  s                 40     -0.712353  5 H  s          
    31      0.441985  4 O  px                 8      0.387898  1 O  py         
    27     -0.281497  4 O  s                 28      0.194823  4 O  px         
     5      0.176656  1 O  py         

 Vector   14  Occ=0.000000D+00  E= 2.818854D-01
              MO Center=  4.1D-01,  5.7D-01,  1.7D-01, r^2= 5.3D+00
   Bfn.  Coefficient  Atom+Function         Bfn.  Coefficient  Atom+Function  
  ----- ------------  ---------------      ----- ------------  ---------------
    16      1.267603  2 H  s                 40     -1.258358  5 H  s          
    21     -0.865075  3 H  s                 45      0.826773  6 H  s          
     8     -0.432098  1 O  py                31      0.386258  4 O  px         
    32      0.281938  4 O  py                27      0.250427  4 O  s          
     3     -0.232340  1 O  s                  9     -0.202812  1 O  pz         

 Vector   15  Occ=0.000000D+00  E= 7.613211D-01
              MO Center=  1.4D-01,  2.8D-01, -5.6D-01, r^2= 3.7D+00
   Bfn.  Coefficient  Atom+Function         Bfn.  Coefficient  Atom+Function  
  ----- ------------  ---------------      ----- ------------  ---------------
    15      0.815959  2 H  s                 20     -0.766786  3 H  s          
    16     -0.695040  2 H  s                 21      0.606839  3 H  s          
    39     -0.521387  5 H  s                 44      0.500396  6 H  s          
    40      0.492323  5 H  s                 45     -0.403861  6 H  s          
     8     -0.329980  1 O  py                31      0.199186  4 O  px         

 Vector   16  Occ=0.000000D+00  E= 7.666566D-01
              MO Center= -7.1D-02, -1.4D-01,  5.8D-01, r^2= 3.6D+00
   Bfn.  Coefficient  Atom+Function         Bfn.  Coefficient  Atom+Function  
  ----- ------------  ---------------      ----- ------------  ---------------
    44      0.839843  6 H  s                 39     -0.736084  5 H  s          
    45     -0.619171  6 H  s                 20      0.559887  3 H  s          
    40      0.539923  5 H  s                 15     -0.463058  2 H  s          
    21     -0.386024  3 H  s                 31      0.315961  4 O  px         
    16      0.308176  2 H  s                  8      0.234987  1 O  py         

 Vector   17  Occ=0.000000D+00  E= 8.237038D-01
              MO Center=  1.4D-01,  1.8D-01,  2.1D-01, r^2= 3.3D+00
   Bfn.  Coefficient  Atom+Function         Bfn.  Coefficient  Atom+Function  
  ----- ------------  ---------------      ----- ------------  ---------------
    39      0.692188  5 H  s                 15      0.588789  2 H  s          
    44      0.524659  6 H  s                 20      0.495479  3 H  s          
    40     -0.407510  5 H  s                 16     -0.302964  2 H  s          
    45     -0.297627  6 H  s                 21     -0.282692  3 H  s          
    29     -0.213545  4 O  py                 4     -0.210520  1 O  px         

 Vector   18  Occ=0.000000D+00  E= 8.736316D-01
              MO Center=  1.2D-01,  1.4D-01, -1.2D-01, r^2= 4.1D+00
   Bfn.  Coefficient  Atom+Function         Bfn.  Coefficient  Atom+Function  
  ----- ------------  ---------------      ----- ------------  ---------------
    20      0.587346  3 H  s                 16     -0.541215  2 H  s          
    15      0.521551  2 H  s                 44     -0.523250  6 H  s          
    21     -0.498245  3 H  s                 40      0.493832  5 H  s          
    45      0.475870  6 H  s                 39     -0.467401  5 H  s          
     3      0.396378  1 O  s                 27     -0.372756  4 O  s          

 Vector   19  Occ=0.000000D+00  E= 1.139451D+00
              MO Center= -4.7D-02, -3.6D-02, -2.8D-02, r^2= 4.6D+00
   Bfn.  Coefficient  Atom+Function         Bfn.  Coefficient  Atom+Function  
  ----- ------------  ---------------      ----- ------------  ---------------
     9      0.658350  1 O  pz                32      0.627156  4 O  py         
    33     -0.588226  4 O  pz                 7      0.527224  1 O  px         
     3      0.486383  1 O  s                 27      0.483056  4 O  s          
     6     -0.479916  1 O  pz                30      0.449086  4 O  pz         
    29     -0.352096  4 O  py                 8     -0.341325  1 O  py         

 Vector   20  Occ=0.000000D+00  E= 1.164760D+00
              MO Center= -7.5D-02, -7.4D-02, -1.2D-01, r^2= 4.1D+00
   Bfn.  Coefficient  Atom+Function         Bfn.  Coefficient  Atom+Function  
  ----- ------------  ---------------      ----- ------------  ---------------
     7      0.839353  1 O  px                32     -0.823199  4 O  py         
     4     -0.553530  1 O  px                29      0.501879  4 O  py         
     3      0.428299  1 O  s                 15     -0.425780  2 H  s          
    27     -0.411056  4 O  s                 39      0.403586  5 H  s          
    20     -0.297061  3 H  s                  9      0.264602  1 O  pz         


 center of mass
 --------------
 x =  -0.02261099 y =  -0.03001620 z =  -0.00716789

 moments of inertia (a.u.)
 ------------------
         373.740373451064           2.537697844956         -12.090736225793
           2.537697844956         338.811848302070         105.846316692805
         -12.090736225793         105.846316692805          46.005726021207

  Mulliken analysis of the total density
  --------------------------------------

    Atom       Charge   Shell Charges
 -----------   ------   -------------------------------------------------------
    1 O    8     8.32   2.00  0.84  0.84  2.80  1.83  0.01
    2 H    1     0.84   0.68  0.08  0.08
    3 H    1     0.83   0.68  0.07  0.08
    4 O    8     8.33   2.00  0.84  0.84  2.80  1.83  0.01
    5 H    1     0.84   0.68  0.08  0.08
    6 H    1     0.83   0.67  0.08  0.08

       Multipole analysis of the density wrt the origin
       ------------------------------------------------

     L   x y z        total         open         nuclear
     -   - - -        -----         ----         -------
     0   0 0 0     -0.000000      0.000000     20.000000

     1   1 0 0      0.350696      0.000000     -0.000000
     1   0 1 0      0.464409      0.000000     -0.000000
     1   0 0 1      0.104816      0.000000      0.000000

     2   2 0 0     -8.132686      0.000000      5.017915
     2   1 1 0      1.474146      0.000000      0.243503
     2   1 0 1     -2.210603      0.000000      3.719765
     2   0 2 0     -9.177484      0.000000     22.955528
     2   0 1 1      3.831232      0.000000    -54.223562
     2   0 0 2    -14.142579      0.000000    180.202138


 Parallel integral file used      12 records with       0 large values

                              NWChem Gradients Module
                              -----------------------



  wavefunction    =   RHF     



                         RHF ENERGY GRADIENTS

    atom               coordinates                        gradient
                 x          y          z           x          y          z
   1 O      -0.221253   0.975827  -3.108128   -0.031520   0.007903  -0.022625
   2 H       0.825121   2.027773  -2.015610    0.017473   0.015313   0.019286
   3 H       0.632308  -0.650924  -3.015012    0.014174  -0.022813   0.001959
   4 O       0.118575  -1.112132   3.075578    0.017636  -0.032119   0.017295
   5 H       0.953005   0.514956   2.863025    0.013732   0.025919  -0.004878
   6 H      -1.589011  -0.801361   2.427995   -0.031495   0.005796  -0.011037

                 ----------------------------------------
                 |  Time  |  1-e(secs)   |  2-e(secs)   |
                 ----------------------------------------
                 |  CPU   |       0.00   |       0.22   |
                 ----------------------------------------
                 |  WALL  |       0.00   |       0.22   |
                 ----------------------------------------

 Task  times  cpu:        0.5s     wall:        0.5s


                                NWChem Input Module
                                -------------------


 Summary of allocated global arrays
-----------------------------------
  No active global arrays



                         GA Statistics for process    0
                         ------------------------------

       create   destroy   get      put      acc     scatter   gather  read&inc
calls:  249      249     6359     2332     2356        0        0      127     
number of processes/call 0.00e+00 0.00e+00 0.00e+00 0.00e+00 0.00e+00
bytes total:             6.37e+06 3.82e+06 9.06e+05 0.00e+00 0.00e+00 1.02e+03
bytes remote:            0.00e+00 0.00e+00 0.00e+00 0.00e+00 0.00e+00 0.00e+00
Max memory consumed for GA by this process: 239616 bytes

MA_summarize_allocated_blocks: starting scan ...
MA_summarize_allocated_blocks: scan completed: 0 heap blocks, 0 stack blocks
MA usage statistics:

	allocation statistics:
					      heap	     stack
					      ----	     -----
	current number of blocks	         0	         0
	maximum number of blocks	        18	        28
	current total bytes		         0	         0
	maximum total bytes		  12084288	  22510264
	maximum total K-bytes		     12085	     22511
	maximum total M-bytes		        13	        23


                                     CITATION
                                     --------
                Please cite the following reference when publishing
                           results obtained with NWChem:

          E. Aprà, E. J. Bylaska, W. A. de Jong, N. Govind, K. Kowalski,
       T. P. Straatsma, M. Valiev, H. J. J. van Dam, Y. Alexeev, J. Anchell,
       V. Anisimov, F. W. Aquino, R. Atta-Fynn, J. Autschbach, N. P. Bauman,
     J. C. Becca, D. E. Bernholdt, K. Bhaskaran-Nair, S. Bogatko, P. Borowski,
        J. Boschen, J. Brabec, A. Bruner, E. Cauët, Y. Chen, G. N. Chuev,
      C. J. Cramer, J. Daily, M. J. O. Deegan, T. H. Dunning Jr., M. Dupuis,
   K. G. Dyall, G. I. Fann, S. A. Fischer, A. Fonari, H. Früchtl, L. Gagliardi,
      J. Garza, N. Gawande, S. Ghosh, K. Glaesemann, A. W. Götz, J. Hammond,
       V. Helms, E. D. Hermes, K. Hirao, S. Hirata, M. Jacquelin, L. Jensen,
   B. G. Johnson, H. Jónsson, R. A. Kendall, M. Klemm, R. Kobayashi, V. Konkov,
      S. Krishnamoorthy, M. Krishnan, Z. Lin, R. D. Lins, R. J. Littlefield,
      A. J. Logsdail, K. Lopata, W. Ma, A. V. Marenich, J. Martin del Campo,
   D. Mejia-Rodriguez, J. E. Moore, J. M. Mullin, T. Nakajima, D. R. Nascimento,
    J. A. Nichols, P. J. Nichols, J. Nieplocha, A. Otero-de-la-Roza, B. Palmer,
    A. Panyala, T. Pirojsirikul, B. Peng, R. Peverati, J. Pittner, L. Pollack,
   R. M. Richard, P. Sadayappan, G. C. Schatz, W. A. Shelton, D. W. Silverstein,
   D. M. A. Smith, T. A. Soares, D. Song, M. Swart, H. L. Taylor, G. S. Thomas,
            V. Tipparaju, D. G. Truhlar, K. Tsemekhman, T. Van Voorhis,
     Á. Vázquez-Mayagoitia, P. Verma, O. Villa, A. Vishnu, K. D. Vogiatzis,
        D. Wang, J. H. Weare, M. J. Williamson, T. L. Windus, K. Woliński,
        A. T. Wong, Q. Wu, C. Yang, Q. Yu, M. Zacharias, Z. Zhang, Y. Zhao,
                                and R. J. Harrison
                        "NWChem: Past, present, and future
                         J. Chem. Phys. 152, 184102 (2020)
                               doi:10.1063/5.0004997

                                      AUTHORS
                                      -------
     E. Apra, E. J. Bylaska, N. Govind, K. Kowalski, M. Valiev, W. A. de Jong,
      T. P. Straatsma, H. J. J. van Dam, D. Wang, T. L. Windus, N. P. Bauman,
       A. Panyala, J. Hammond, J. Autschbach, K. Bhaskaran-Nair, J. Brabec,
    K. Lopata, S. A. Fischer, S. Krishnamoorthy, M. Jacquelin, W. Ma, M. Klemm,
       O. Villa, Y. Chen, V. Anisimov, F. Aquino, S. Hirata, M. T. Hackler,
           Eric Hermes, L. Jensen, J. E. Moore, J. C. Becca, V. Konjkov,
            D. Mejia-Rodriguez, T. Risthaus, M. Malagoli, A. Marenich,
   A. Otero-de-la-Roza, J. Mullin, P. Nichols, R. Peverati, J. Pittner, Y. Zhao,
        P.-D. Fan, A. Fonari, M. J. Williamson, R. J. Harrison, J. R. Rehr,
      M. Dupuis, D. Silverstein, D. M. A. Smith, J. Nieplocha, V. Tipparaju,
      M. Krishnan, B. E. Van Kuiken, A. Vazquez-Mayagoitia, M. Swart, Q. Wu,
   T. Van Voorhis, A. A. Auer, M. Nooijen, L. D. Crosby, E. Brown, G. Cisneros,
     G. I. Fann, H. Fruchtl, J. Garza, K. Hirao, R. A. Kendall, J. A. Nichols,
       K. Tsemekhman, K. Wolinski, J. Anchell, D. E. Bernholdt, P. Borowski,
       T. Clark, D. Clerc, H. Dachsel, M. J. O. Deegan, K. Dyall, D. Elwood,
      E. Glendening, M. Gutowski, A. C. Hess, J. Jaffe, B. G. Johnson, J. Ju,
        R. Kobayashi, R. Kutteh, Z. Lin, R. Littlefield, X. Long, B. Meng,
      T. Nakajima, S. Niu, L. Pollack, M. Rosing, K. Glaesemann, G. Sandrone,
      M. Stave, H. Taylor, G. Thomas, J. H. van Lenthe, A. T. Wong, Z. Zhang.

 Total times  cpu:        0.5s     wall:        0.6s
