 argument  1 = nwchem/input_3_14_1.nw



============================== echo of input deck ==============================
echo
memory 1000 mb
geometry noautosym noautoz
O -0.82054445 0.61636011 -1.6312343
H -0.26682713 1.17302621 -1.05309865
H -0.36885969 -0.24447946 -1.58195952
O 0.57630762 -1.69154092 -0.42866929
H 0.43417462 -2.64420081 -0.48595869
H 0.08911917 -1.3894609 0.38589939
O 2.81159896 -0.10395953 -0.18689424
H 3.46294039 -0.4517338 0.43482057
H 2.1584952 -0.82915775 -0.30211113
end
basis spherical
 * library cc-pvdz
end
task scf gradient
================================================================================


                                         
                                         


             Northwest Computational Chemistry Package (NWChem) 7.0.2
             --------------------------------------------------------


                    Environmental Molecular Sciences Laboratory
                       Pacific Northwest National Laboratory
                                Richland, WA 99352

                              Copyright (c) 1994-2020
                       Pacific Northwest National Laboratory
                            Battelle Memorial Institute

             NWChem is an open-source computational chemistry package
                        distributed under the terms of the
                      Educational Community License (ECL) 2.0
             A copy of the license is included with this distribution
                              in the LICENSE.TXT file

                                  ACKNOWLEDGMENT
                                  --------------

            This software and its documentation were developed at the
            EMSL at Pacific Northwest National Laboratory, a multiprogram
            national laboratory, operated for the U.S. Department of Energy
            by Battelle under Contract Number DE-AC05-76RL01830. Support
            for this work was provided by the Department of Energy Office
            of Biological and Environmental Research, Office of Basic
            Energy Sciences, and the Office of Advanced Scientific Computing.


           Job information
           ---------------

    hostname        = pop-os
    program         = nwchem
    date            = Tue Jul  6 14:10:22 2021

    compiled        = Wed_Jan_06_19:48:08_2021
    source          = /build/nwchem-ksKH2r/nwchem-7.0.2
    nwchem branch   = 7.0.2
    nwchem revision = N/A
    ga revision     = 5.7.1
    use scalapack   = T
    input           = nwchem/input_3_14_1.nw
    prefix          = input_3_14_1.
    data base       = ./input_3_14_1.db
    status          = startup
    nproc           =        1
    time left       =     -1s



           Memory information
           ------------------

    heap     =   32767996 doubles =    250.0 Mbytes
    stack    =   32768001 doubles =    250.0 Mbytes
    global   =   65536000 doubles =    500.0 Mbytes (distinct from heap & stack)
    total    =  131071997 doubles =   1000.0 Mbytes
    verify   = yes
    hardfail = no 


           Directory information
           ---------------------

  0 permanent = .
  0 scratch   = .




                                NWChem Input Module
                                -------------------



 Scaling coordinates for geometry "geometry" by  1.889725989
 (inverse scale =  0.529177249)



                             Geometry "geometry" -> ""
                             -------------------------

 Output coordinates in angstroms (scale by  1.889725989 to convert to a.u.)

  No.       Tag          Charge          X              Y              Z
 ---- ---------------- ---------- -------------- -------------- --------------
    1 O                    8.0000    -1.68880910     1.07699775    -0.94534128
    2 H                    1.0000    -1.13509178     1.63366385    -0.36720563
    3 H                    1.0000    -1.23712434     0.21615818    -0.89606650
    4 O                    8.0000    -0.29195703    -1.23090328     0.25722373
    5 H                    1.0000    -0.43409003    -2.18356317     0.19993433
    6 H                    1.0000    -0.77914548    -0.92882326     1.07179241
    7 O                    8.0000     1.94333431     0.35667811     0.49899878
    8 H                    1.0000     2.59467574     0.00890384     1.12071359
    9 H                    1.0000     1.29023055    -0.36852011     0.38378189

      Atomic Mass 
      ----------- 

      O                 15.994910
      H                  1.007825


 Effective nuclear repulsion energy (a.u.)      78.1353597936

            Nuclear Dipole moment (a.u.) 
            ----------------------------
        X                 Y               Z
 ---------------- ---------------- ----------------
     0.0000000000     0.0000000000    -0.0000000000


            XYZ format geometry
            -------------------
     9
 geometry
 O                    -1.68880910     1.07699775    -0.94534128
 H                    -1.13509178     1.63366385    -0.36720563
 H                    -1.23712434     0.21615818    -0.89606650
 O                    -0.29195703    -1.23090328     0.25722373
 H                    -0.43409003    -2.18356317     0.19993433
 H                    -0.77914548    -0.92882326     1.07179241
 O                     1.94333431     0.35667811     0.49899878
 H                     2.59467574     0.00890384     1.12071359
 H                     1.29023055    -0.36852011     0.38378189

 ==============================================================================
                                internuclear distances
 ------------------------------------------------------------------------------
       center one      |      center two      | atomic units |  angstroms
 ------------------------------------------------------------------------------
    2 H                |   1 O                |     1.84258  |     0.97505
    3 H                |   1 O                |     1.83944  |     0.97339
    5 H                |   4 O                |     1.82341  |     0.96491
    6 H                |   4 O                |     1.88227  |     0.99606
    8 H                |   7 O                |     1.82407  |     0.96526
    9 H                |   7 O                |     1.85707  |     0.98272
 ------------------------------------------------------------------------------
                         number of included internuclear distances:          6
 ==============================================================================



 ==============================================================================
                                 internuclear angles
 ------------------------------------------------------------------------------
        center 1       |       center 2       |       center 3       |  degrees
 ------------------------------------------------------------------------------
    2 H                |   1 O                |   3 H                |   102.20
    5 H                |   4 O                |   6 H                |   106.02
    8 H                |   7 O                |   9 H                |   104.96
 ------------------------------------------------------------------------------
                            number of included internuclear angles:          3
 ==============================================================================





 Summary of "ao basis" -> "" (spherical)
 ------------------------------------------------------------------------------
       Tag                 Description            Shells   Functions and Types
 ---------------- ------------------------------  ------  ---------------------
 *                          cc-pvdz                   on all atoms 


                      Basis "ao basis" -> "ao basis" (spherical)
                      -----
  O (Oxygen)
  ----------
            Exponent  Coefficients 
       -------------- ---------------------------------------------------------
  1 S  1.17200000E+04  0.000710
  1 S  1.75900000E+03  0.005470
  1 S  4.00800000E+02  0.027837
  1 S  1.13700000E+02  0.104800
  1 S  3.70300000E+01  0.283062
  1 S  1.32700000E+01  0.448719
  1 S  5.02500000E+00  0.270952
  1 S  1.01300000E+00  0.015458

  2 S  1.17200000E+04 -0.000160
  2 S  1.75900000E+03 -0.001263
  2 S  4.00800000E+02 -0.006267
  2 S  1.13700000E+02 -0.025716
  2 S  3.70300000E+01 -0.070924
  2 S  1.32700000E+01 -0.165411
  2 S  5.02500000E+00 -0.116955
  2 S  1.01300000E+00  0.557368

  3 S  3.02300000E-01  1.000000

  4 P  1.77000000E+01  0.043018
  4 P  3.85400000E+00  0.228913
  4 P  1.04600000E+00  0.508728

  5 P  2.75300000E-01  1.000000

  6 D  1.18500000E+00  1.000000

  H (Hydrogen)
  ------------
            Exponent  Coefficients 
       -------------- ---------------------------------------------------------
  1 S  1.30100000E+01  0.019685
  1 S  1.96200000E+00  0.137977
  1 S  4.44600000E-01  0.478148

  2 S  1.22000000E-01  1.000000

  3 P  7.27000000E-01  1.000000



 Summary of "ao basis" -> "ao basis" (spherical)
 ------------------------------------------------------------------------------
       Tag                 Description            Shells   Functions and Types
 ---------------- ------------------------------  ------  ---------------------
 O                          cc-pvdz                  6       14   3s2p1d
 H                          cc-pvdz                  3        5   2s1p


                                 NWChem SCF Module
                                 -----------------



  ao basis        = "ao basis"
  functions       =    72
  atoms           =     9
  closed shells   =    15
  open shells     =     0
  charge          =   0.00
  wavefunction    = RHF 
  input vectors   = atomic
  output vectors  = ./input_3_14_1.movecs
  use symmetry    = F
  symmetry adapt  = F


 Summary of "ao basis" -> "ao basis" (spherical)
 ------------------------------------------------------------------------------
       Tag                 Description            Shells   Functions and Types
 ---------------- ------------------------------  ------  ---------------------
 O                          cc-pvdz                  6       14   3s2p1d
 H                          cc-pvdz                  3        5   2s1p



 Forming initial guess at       0.1s


      Superposition of Atomic Density Guess
      -------------------------------------

 Sum of atomic energies:        -227.28668731

      Non-variational initial energy
      ------------------------------

 Total energy =    -227.762975
 1-e energy   =    -466.615996
 2-e energy   =     160.717661
 HOMO         =      -0.459244
 LUMO         =       0.047322


 Starting SCF solution at       0.3s



 ----------------------------------------------
         Quadratically convergent ROHF

 Convergence threshold     :          1.000E-04
 Maximum no. of iterations :           30
 Final Fock-matrix accuracy:          1.000E-07
 ----------------------------------------------


 Integral file          = ./input_3_14_1.aoints.0
 Record size in doubles =  65536        No. of integs per rec  =  43688
 Max. records in memory =    110        Max. records in file   = 400585
 No. of bits per label  =      8        No. of bits per value  =     64


 #quartets = 1.748D+05 #integrals = 2.193D+06 #direct =  0.0% #cached =100.0%


              iter       energy          gnorm     gmax       time
             ----- ------------------- --------- --------- --------
                 1     -227.9931508193  1.36D+00  3.14D-01      1.0
                 2     -228.0814432673  2.98D-01  7.98D-02      1.2
                 3     -228.0885269254  2.48D-02  4.61D-03      1.3
                 4     -228.0885799267  4.47D-04  1.02D-04      1.5
                 5     -228.0885799403  7.71D-06  1.24D-06      1.7


       Final RHF  results 
       ------------------ 

         Total SCF energy =   -228.088579940266
      One-electron energy =   -470.497132990496
      Two-electron energy =    164.273193256592
 Nuclear repulsion energy =     78.135359793638

        Time for solution =      1.4s


             Final eigenvalues
             -----------------

              1      
    1  -20.6169
    2  -20.5293
    3  -20.5263
    4   -1.3897
    5   -1.3068
    6   -1.3063
    7   -0.7532
    8   -0.6882
    9   -0.6677
   10   -0.6151
   11   -0.5704
   12   -0.5401
   13   -0.5254
   14   -0.4703
   15   -0.4695
   16    0.1386
   17    0.2107
   18    0.2226
   19    0.2405
   20    0.3266
   21    0.3784
   22    0.7116
   23    0.7745
   24    0.7942
   25    0.8050

                       ROHF Final Molecular Orbital Analysis
                       -------------------------------------

 Vector    4  Occ=2.000000D+00  E=-1.389745D+00
              MO Center= -3.5D-01, -1.3D+00,  3.5D-01, r^2= 5.8D-01
   Bfn.  Coefficient  Atom+Function         Bfn.  Coefficient  Atom+Function  
  ----- ------------  ---------------      ----- ------------  ---------------
    26      0.444428  4 O  s                 27      0.397466  4 O  s          
    39      0.185496  5 H  s                 44      0.170297  6 H  s          

 Vector    5  Occ=2.000000D+00  E=-1.306812D+00
              MO Center= -1.3D+00,  9.7D-01, -7.5D-01, r^2= 1.6D+00
   Bfn.  Coefficient  Atom+Function         Bfn.  Coefficient  Atom+Function  
  ----- ------------  ---------------      ----- ------------  ---------------
     2      0.425774  1 O  s                  3      0.374115  1 O  s          
    15      0.179767  2 H  s                 20      0.178659  3 H  s          

 Vector    6  Occ=2.000000D+00  E=-1.306275D+00
              MO Center=  1.7D+00,  2.6D-01,  4.7D-01, r^2= 1.6D+00
   Bfn.  Coefficient  Atom+Function         Bfn.  Coefficient  Atom+Function  
  ----- ------------  ---------------      ----- ------------  ---------------
    50      0.423851  7 O  s                 51      0.373538  7 O  s          
    63      0.183554  8 H  s                 68      0.170190  9 H  s          

 Vector    7  Occ=2.000000D+00  E=-7.531735D-01
              MO Center= -3.7D-01, -1.3D+00,  3.8D-01, r^2= 9.3D-01
   Bfn.  Coefficient  Atom+Function         Bfn.  Coefficient  Atom+Function  
  ----- ------------  ---------------      ----- ------------  ---------------
    29      0.418399  4 O  py                39     -0.332439  5 H  s          
    44      0.291542  6 H  s                 30      0.241542  4 O  pz         
    32      0.201113  4 O  py         

 Vector    8  Occ=2.000000D+00  E=-6.882426D-01
              MO Center=  1.3D+00, -2.0D-01,  5.1D-01, r^2= 2.1D+00
   Bfn.  Coefficient  Atom+Function         Bfn.  Coefficient  Atom+Function  
  ----- ------------  ---------------      ----- ------------  ---------------
    52      0.346280  7 O  px                68     -0.283627  9 H  s          
    63      0.268718  8 H  s                 28     -0.220903  4 O  px         
    54      0.185075  7 O  pz                55      0.158945  7 O  px         

 Vector    9  Occ=2.000000D+00  E=-6.677242D-01
              MO Center= -1.4D+00,  8.6D-01, -7.4D-01, r^2= 1.4D+00
   Bfn.  Coefficient  Atom+Function         Bfn.  Coefficient  Atom+Function  
  ----- ------------  ---------------      ----- ------------  ---------------
     5      0.441388  1 O  py                20     -0.312114  3 H  s          
    15      0.301986  2 H  s                  8      0.209614  1 O  py         
     6      0.152010  1 O  pz         

 Vector   10  Occ=2.000000D+00  E=-6.151055D-01
              MO Center=  1.3D-01, -7.2D-01,  2.4D-01, r^2= 2.6D+00
   Bfn.  Coefficient  Atom+Function         Bfn.  Coefficient  Atom+Function  
  ----- ------------  ---------------      ----- ------------  ---------------
    30     -0.315708  4 O  pz                27      0.291840  4 O  s          
    29      0.267583  4 O  py                28      0.214574  4 O  px         
    33     -0.211276  4 O  pz                52      0.195209  7 O  px         
    63      0.180844  8 H  s                 32      0.175484  4 O  py         
    44     -0.171604  6 H  s                 39     -0.169960  5 H  s          

 Vector   11  Occ=2.000000D+00  E=-5.704086D-01
              MO Center= -1.5D-02, -3.3D-01,  7.5D-02, r^2= 3.6D+00
   Bfn.  Coefficient  Atom+Function         Bfn.  Coefficient  Atom+Function  
  ----- ------------  ---------------      ----- ------------  ---------------
    28      0.368943  4 O  px                31      0.290900  4 O  px         
    30      0.256550  4 O  pz                33      0.201942  4 O  pz         
    53     -0.195753  7 O  py                51     -0.184677  7 O  s          
     4     -0.180711  1 O  px                 3      0.176532  1 O  s          
    54      0.154868  7 O  pz                 6     -0.153632  1 O  pz         

 Vector   12  Occ=2.000000D+00  E=-5.400682D-01
              MO Center= -6.6D-01,  7.5D-01, -5.0D-01, r^2= 4.1D+00
   Bfn.  Coefficient  Atom+Function         Bfn.  Coefficient  Atom+Function  
  ----- ------------  ---------------      ----- ------------  ---------------
     4      0.371922  1 O  px                 7      0.254849  1 O  px         
    53     -0.255606  7 O  py                 3     -0.250221  1 O  s          
     6      0.216116  1 O  pz                20      0.179013  3 H  s          
    51     -0.175639  7 O  s                 56     -0.174003  7 O  py         
    15      0.161776  2 H  s          

 Vector   13  Occ=2.000000D+00  E=-5.254402D-01
              MO Center=  6.4D-01, -1.3D-01,  2.2D-01, r^2= 3.5D+00
   Bfn.  Coefficient  Atom+Function         Bfn.  Coefficient  Atom+Function  
  ----- ------------  ---------------      ----- ------------  ---------------
    53      0.382342  7 O  py                28      0.348268  4 O  px         
    56      0.270797  7 O  py                31      0.265405  4 O  px         
    30      0.190683  4 O  pz                51      0.190768  7 O  s          
     4      0.174829  1 O  px                68     -0.171900  9 H  s          

 Vector   14  Occ=2.000000D+00  E=-4.702928D-01
              MO Center=  7.4D-01,  5.8D-01,  2.9D-02, r^2= 4.1D+00
   Bfn.  Coefficient  Atom+Function         Bfn.  Coefficient  Atom+Function  
  ----- ------------  ---------------      ----- ------------  ---------------
    54      0.390858  7 O  pz                57      0.310770  7 O  pz         
     6      0.281841  1 O  pz                52     -0.274642  7 O  px         
    55     -0.224901  7 O  px                 9      0.221616  1 O  pz         
     4     -0.208885  1 O  px                53      0.181833  7 O  py         
     7     -0.164848  1 O  px         

 Vector   15  Occ=2.000000D+00  E=-4.695328D-01
              MO Center= -4.6D-01,  8.1D-01, -4.5D-01, r^2= 4.1D+00
   Bfn.  Coefficient  Atom+Function         Bfn.  Coefficient  Atom+Function  
  ----- ------------  ---------------      ----- ------------  ---------------
     6      0.407375  1 O  pz                 9      0.324101  1 O  pz         
     4     -0.279274  1 O  px                54     -0.279618  7 O  pz         
    57     -0.222843  7 O  pz                 7     -0.219878  1 O  px         
    52      0.198153  7 O  px                55      0.159727  7 O  px         

 Vector   16  Occ=0.000000D+00  E= 1.385551D-01
              MO Center= -4.5D-01, -1.3D+00,  6.3D-01, r^2= 4.4D+00
   Bfn.  Coefficient  Atom+Function         Bfn.  Coefficient  Atom+Function  
  ----- ------------  ---------------      ----- ------------  ---------------
    27      0.886865  4 O  s                 40     -0.753218  5 H  s          
    45     -0.683438  6 H  s                 64     -0.308607  8 H  s          
    16     -0.272968  2 H  s                 51      0.238180  7 O  s          
     3      0.218123  1 O  s                 33      0.178973  4 O  pz         
    32     -0.158784  4 O  py                31     -0.154746  4 O  px         

 Vector   17  Occ=0.000000D+00  E= 2.107473D-01
              MO Center= -5.0D-02, -9.8D-01,  4.3D-01, r^2= 7.2D+00
   Bfn.  Coefficient  Atom+Function         Bfn.  Coefficient  Atom+Function  
  ----- ------------  ---------------      ----- ------------  ---------------
    40      1.243043  5 H  s                 45     -0.780928  6 H  s          
    16     -0.625163  2 H  s                 64     -0.592670  8 H  s          
    32      0.440441  4 O  py                51      0.379106  7 O  s          
     3      0.323862  1 O  s                 27     -0.266795  4 O  s          
    29      0.215221  4 O  py                33      0.214995  4 O  pz         

 Vector   18  Occ=0.000000D+00  E= 2.225971D-01
              MO Center=  1.6D+00, -3.7D-01,  1.2D+00, r^2= 5.5D+00
   Bfn.  Coefficient  Atom+Function         Bfn.  Coefficient  Atom+Function  
  ----- ------------  ---------------      ----- ------------  ---------------
    64      1.162996  8 H  s                 45     -0.926242  6 H  s          
    51     -0.749174  7 O  s                 40      0.476010  5 H  s          
    33      0.254241  4 O  pz                55     -0.236200  7 O  px         
    57     -0.228203  7 O  pz                27      0.206240  4 O  s          
    32      0.199848  4 O  py                56      0.165645  7 O  py         

 Vector   19  Occ=0.000000D+00  E= 2.405493D-01
              MO Center= -7.0D-01,  9.0D-01,  1.1D-01, r^2= 5.5D+00
   Bfn.  Coefficient  Atom+Function         Bfn.  Coefficient  Atom+Function  
  ----- ------------  ---------------      ----- ------------  ---------------
    16      1.102651  2 H  s                 45     -0.865318  6 H  s          
     3     -0.814075  1 O  s                 64     -0.453011  8 H  s          
    40      0.353327  5 H  s                 21      0.290802  3 H  s          
    33      0.259061  4 O  pz                 7     -0.249790  1 O  px         
    69      0.215033  9 H  s                  9     -0.201154  1 O  pz         

 Vector   20  Occ=0.000000D+00  E= 3.266083D-01
              MO Center= -1.1D+00,  1.2D-01, -8.6D-01, r^2= 3.7D+00
   Bfn.  Coefficient  Atom+Function         Bfn.  Coefficient  Atom+Function  
  ----- ------------  ---------------      ----- ------------  ---------------
    21      1.790411  3 H  s                 16     -1.041642  2 H  s          
     8      0.616682  1 O  py                 3     -0.433897  1 O  s          
    40     -0.421107  5 H  s                 69      0.335348  9 H  s          
    32     -0.313522  4 O  py                 5      0.261455  1 O  py         
    64     -0.150492  8 H  s          

 Vector   21  Occ=0.000000D+00  E= 3.783902D-01
              MO Center=  1.2D+00, -4.9D-01,  3.1D-01, r^2= 3.8D+00
   Bfn.  Coefficient  Atom+Function         Bfn.  Coefficient  Atom+Function  
  ----- ------------  ---------------      ----- ------------  ---------------
    69      2.075518  9 H  s                 64     -0.970769  8 H  s          
    51     -0.577469  7 O  s                 55      0.559942  7 O  px         
    21     -0.454840  3 H  s                 31     -0.331659  4 O  px         
    56      0.318338  7 O  py                 3      0.292570  1 O  s          
    40     -0.256962  5 H  s                 57      0.246794  7 O  pz         

 Vector   22  Occ=0.000000D+00  E= 7.116072D-01
              MO Center= -5.0D-01, -9.5D-01,  2.6D-01, r^2= 3.0D+00
   Bfn.  Coefficient  Atom+Function         Bfn.  Coefficient  Atom+Function  
  ----- ------------  ---------------      ----- ------------  ---------------
    44      0.905936  6 H  s                 39     -0.807584  5 H  s          
    45     -0.719026  6 H  s                 40      0.535350  5 H  s          
    32     -0.422505  4 O  py                15      0.376258  2 H  s          
    21      0.358396  3 H  s                 69      0.328031  9 H  s          
    20     -0.284468  3 H  s                 33     -0.210078  4 O  pz         

 Vector   23  Occ=0.000000D+00  E= 7.745019D-01
              MO Center=  3.1D-01,  5.2D-02,  2.1D-01, r^2= 4.8D+00
   Bfn.  Coefficient  Atom+Function         Bfn.  Coefficient  Atom+Function  
  ----- ------------  ---------------      ----- ------------  ---------------
    69      0.863620  9 H  s                 68     -0.752216  9 H  s          
    15     -0.621644  2 H  s                 63      0.523475  8 H  s          
    64     -0.458657  8 H  s                 44      0.451492  6 H  s          
    45     -0.412845  6 H  s                 16      0.397640  2 H  s          
    21     -0.339106  3 H  s                 39      0.337680  5 H  s          

 Vector   24  Occ=0.000000D+00  E= 7.942435D-01
              MO Center= -6.3D-01, -8.9D-01,  4.5D-02, r^2= 4.3D+00
   Bfn.  Coefficient  Atom+Function         Bfn.  Coefficient  Atom+Function  
  ----- ------------  ---------------      ----- ------------  ---------------
    39      0.846343  5 H  s                 21      0.661915  3 H  s          
    40     -0.651609  5 H  s                 20     -0.584400  3 H  s          
    15      0.486225  2 H  s                 16     -0.423670  2 H  s          
    44      0.408997  6 H  s                 45     -0.280056  6 H  s          
    63      0.237938  8 H  s                 42     -0.220714  5 H  py         

 Vector   25  Occ=0.000000D+00  E= 8.049723D-01
              MO Center= -5.3D-02, -1.6D-01,  2.7D-01, r^2= 4.4D+00
   Bfn.  Coefficient  Atom+Function         Bfn.  Coefficient  Atom+Function  
  ----- ------------  ---------------      ----- ------------  ---------------
    68      0.702673  9 H  s                 44      0.685776  6 H  s          
    20      0.677769  3 H  s                 45     -0.552896  6 H  s          
    69     -0.552316  9 H  s                 21     -0.407253  3 H  s          
    63     -0.407129  8 H  s                 64      0.364064  8 H  s          
    16      0.330412  2 H  s                 27      0.294819  4 O  s          


 center of mass
 --------------
 x =  -0.01038463 y =   0.05625476 z =  -0.05246681

 moments of inertia (a.u.)
 ------------------
         272.020657761182          46.988653062619        -156.680286720090
          46.988653062619         508.313801286530          74.396931261605
        -156.680286720090          74.396931261605         617.130136252528

  Mulliken analysis of the total density
  --------------------------------------

    Atom       Charge   Shell Charges
 -----------   ------   -------------------------------------------------------
    1 O    8     8.35   2.00  0.83  0.84  2.81  1.86  0.01
    2 H    1     0.84   0.68  0.08  0.08
    3 H    1     0.83   0.66  0.08  0.09
    4 O    8     8.32   2.00  0.83  0.85  2.82  1.81  0.01
    5 H    1     0.81   0.67  0.06  0.08
    6 H    1     0.80   0.64  0.08  0.08
    7 O    8     8.37   2.00  0.83  0.84  2.82  1.87  0.01
    8 H    1     0.85   0.69  0.08  0.08
    9 H    1     0.82   0.64  0.09  0.09

       Multipole analysis of the density wrt the origin
       ------------------------------------------------

     L   x y z        total         open         nuclear
     -   - - -        -----         ----         -------
     0   0 0 0     -0.000000      0.000000     30.000000

     1   1 0 0      0.110319      0.000000      0.000000
     1   0 1 0     -1.651402      0.000000      0.000000
     1   0 0 1      1.320335      0.000000     -0.000000

     2   2 0 0    -17.730428      0.000000    234.698758
     2   1 1 0      1.057713      0.000000    -25.116075
     2   1 0 1     -1.417602      0.000000     85.475333
     2   0 2 0    -10.285009      0.000000    110.346814
     2   0 1 1      0.174143      0.000000    -41.464479
     2   0 0 2    -13.694335      0.000000     47.139645


 Parallel integral file used      51 records with       0 large values

                              NWChem Gradients Module
                              -----------------------



  wavefunction    =   RHF     



                         RHF ENERGY GRADIENTS

    atom               coordinates                        gradient
                 x          y          z           x          y          z
   1 O      -3.191386   2.035231  -1.786436   -0.028727   0.007484  -0.021494
   2 H      -2.145012   3.087177  -0.693918    0.015873   0.014937   0.019154
   3 H      -2.337826   0.408480  -1.693320    0.012392  -0.023950   0.003340
   4 O      -0.551719  -2.326070   0.486082    0.028213   0.008128  -0.037010
   5 H      -0.820311  -4.126336   0.377821   -0.000917  -0.018403  -0.002319
   6 H      -1.472371  -1.755221   2.025394   -0.021093   0.016593   0.038105
   7 O       3.672369   0.674024   0.942971    0.005401   0.029175  -0.011108
   8 H       4.903226   0.016826   2.117842    0.014351  -0.007365   0.013876
   9 H       2.438182  -0.696402   0.725243   -0.025494  -0.026600  -0.002544

                 ----------------------------------------
                 |  Time  |  1-e(secs)   |  2-e(secs)   |
                 ----------------------------------------
                 |  CPU   |       0.01   |       0.76   |
                 ----------------------------------------
                 |  WALL  |       0.01   |       0.76   |
                 ----------------------------------------

 Task  times  cpu:        2.5s     wall:        2.6s


                                NWChem Input Module
                                -------------------


 Summary of allocated global arrays
-----------------------------------
  No active global arrays



                         GA Statistics for process    0
                         ------------------------------

       create   destroy   get      put      acc     scatter   gather  read&inc
calls:  249      249     8485     3841     3497        0        0      141     
number of processes/call 0.00e+00 0.00e+00 0.00e+00 0.00e+00 0.00e+00
bytes total:             1.41e+07 8.42e+06 2.03e+06 0.00e+00 0.00e+00 1.13e+03
bytes remote:            0.00e+00 0.00e+00 0.00e+00 0.00e+00 0.00e+00 0.00e+00
Max memory consumed for GA by this process: 539136 bytes

MA_summarize_allocated_blocks: starting scan ...
MA_summarize_allocated_blocks: scan completed: 0 heap blocks, 0 stack blocks
MA usage statistics:

	allocation statistics:
					      heap	     stack
					      ----	     -----
	current number of blocks	         0	         0
	maximum number of blocks	        18	        28
	current total bytes		         0	         0
	maximum total bytes		  57703112	  26171432
	maximum total K-bytes		     57704	     26172
	maximum total M-bytes		        58	        27


                                     CITATION
                                     --------
                Please cite the following reference when publishing
                           results obtained with NWChem:

          E. Aprà, E. J. Bylaska, W. A. de Jong, N. Govind, K. Kowalski,
       T. P. Straatsma, M. Valiev, H. J. J. van Dam, Y. Alexeev, J. Anchell,
       V. Anisimov, F. W. Aquino, R. Atta-Fynn, J. Autschbach, N. P. Bauman,
     J. C. Becca, D. E. Bernholdt, K. Bhaskaran-Nair, S. Bogatko, P. Borowski,
        J. Boschen, J. Brabec, A. Bruner, E. Cauët, Y. Chen, G. N. Chuev,
      C. J. Cramer, J. Daily, M. J. O. Deegan, T. H. Dunning Jr., M. Dupuis,
   K. G. Dyall, G. I. Fann, S. A. Fischer, A. Fonari, H. Früchtl, L. Gagliardi,
      J. Garza, N. Gawande, S. Ghosh, K. Glaesemann, A. W. Götz, J. Hammond,
       V. Helms, E. D. Hermes, K. Hirao, S. Hirata, M. Jacquelin, L. Jensen,
   B. G. Johnson, H. Jónsson, R. A. Kendall, M. Klemm, R. Kobayashi, V. Konkov,
      S. Krishnamoorthy, M. Krishnan, Z. Lin, R. D. Lins, R. J. Littlefield,
      A. J. Logsdail, K. Lopata, W. Ma, A. V. Marenich, J. Martin del Campo,
   D. Mejia-Rodriguez, J. E. Moore, J. M. Mullin, T. Nakajima, D. R. Nascimento,
    J. A. Nichols, P. J. Nichols, J. Nieplocha, A. Otero-de-la-Roza, B. Palmer,
    A. Panyala, T. Pirojsirikul, B. Peng, R. Peverati, J. Pittner, L. Pollack,
   R. M. Richard, P. Sadayappan, G. C. Schatz, W. A. Shelton, D. W. Silverstein,
   D. M. A. Smith, T. A. Soares, D. Song, M. Swart, H. L. Taylor, G. S. Thomas,
            V. Tipparaju, D. G. Truhlar, K. Tsemekhman, T. Van Voorhis,
     Á. Vázquez-Mayagoitia, P. Verma, O. Villa, A. Vishnu, K. D. Vogiatzis,
        D. Wang, J. H. Weare, M. J. Williamson, T. L. Windus, K. Woliński,
        A. T. Wong, Q. Wu, C. Yang, Q. Yu, M. Zacharias, Z. Zhang, Y. Zhao,
                                and R. J. Harrison
                        "NWChem: Past, present, and future
                         J. Chem. Phys. 152, 184102 (2020)
                               doi:10.1063/5.0004997

                                      AUTHORS
                                      -------
     E. Apra, E. J. Bylaska, N. Govind, K. Kowalski, M. Valiev, W. A. de Jong,
      T. P. Straatsma, H. J. J. van Dam, D. Wang, T. L. Windus, N. P. Bauman,
       A. Panyala, J. Hammond, J. Autschbach, K. Bhaskaran-Nair, J. Brabec,
    K. Lopata, S. A. Fischer, S. Krishnamoorthy, M. Jacquelin, W. Ma, M. Klemm,
       O. Villa, Y. Chen, V. Anisimov, F. Aquino, S. Hirata, M. T. Hackler,
           Eric Hermes, L. Jensen, J. E. Moore, J. C. Becca, V. Konjkov,
            D. Mejia-Rodriguez, T. Risthaus, M. Malagoli, A. Marenich,
   A. Otero-de-la-Roza, J. Mullin, P. Nichols, R. Peverati, J. Pittner, Y. Zhao,
        P.-D. Fan, A. Fonari, M. J. Williamson, R. J. Harrison, J. R. Rehr,
      M. Dupuis, D. Silverstein, D. M. A. Smith, J. Nieplocha, V. Tipparaju,
      M. Krishnan, B. E. Van Kuiken, A. Vazquez-Mayagoitia, M. Swart, Q. Wu,
   T. Van Voorhis, A. A. Auer, M. Nooijen, L. D. Crosby, E. Brown, G. Cisneros,
     G. I. Fann, H. Fruchtl, J. Garza, K. Hirao, R. A. Kendall, J. A. Nichols,
       K. Tsemekhman, K. Wolinski, J. Anchell, D. E. Bernholdt, P. Borowski,
       T. Clark, D. Clerc, H. Dachsel, M. J. O. Deegan, K. Dyall, D. Elwood,
      E. Glendening, M. Gutowski, A. C. Hess, J. Jaffe, B. G. Johnson, J. Ju,
        R. Kobayashi, R. Kutteh, Z. Lin, R. Littlefield, X. Long, B. Meng,
      T. Nakajima, S. Niu, L. Pollack, M. Rosing, K. Glaesemann, G. Sandrone,
      M. Stave, H. Taylor, G. Thomas, J. H. van Lenthe, A. T. Wong, Z. Zhang.

 Total times  cpu:        2.5s     wall:        2.6s
