 argument  1 = nwchem/input_2_2_at_worker_3.nw



============================== echo of input deck ==============================
echo
memory 1000 mb
geometry noautosym noautoz
O 0.87715956 1.70409266 0.47858616
H 1.70199937 1.19722607 0.29220265
H 1.16181787 2.60891668 0.65546661
O -0.64071556 -0.48854013 1.6410419
H -0.19915392 0.37247798 1.5285638
H -1.54433112 -0.32408724 1.298356
end
basis spherical
 * library cc-pvdz
end
task scf gradient
================================================================================


                                         
                                         


             Northwest Computational Chemistry Package (NWChem) 7.0.2
             --------------------------------------------------------


                    Environmental Molecular Sciences Laboratory
                       Pacific Northwest National Laboratory
                                Richland, WA 99352

                              Copyright (c) 1994-2020
                       Pacific Northwest National Laboratory
                            Battelle Memorial Institute

             NWChem is an open-source computational chemistry package
                        distributed under the terms of the
                      Educational Community License (ECL) 2.0
             A copy of the license is included with this distribution
                              in the LICENSE.TXT file

                                  ACKNOWLEDGMENT
                                  --------------

            This software and its documentation were developed at the
            EMSL at Pacific Northwest National Laboratory, a multiprogram
            national laboratory, operated for the U.S. Department of Energy
            by Battelle under Contract Number DE-AC05-76RL01830. Support
            for this work was provided by the Department of Energy Office
            of Biological and Environmental Research, Office of Basic
            Energy Sciences, and the Office of Advanced Scientific Computing.


           Job information
           ---------------

    hostname        = pop-os
    program         = nwchem
    date            = Thu Jul  8 18:22:15 2021

    compiled        = Wed_Jan_06_19:48:08_2021
    source          = /build/nwchem-ksKH2r/nwchem-7.0.2
    nwchem branch   = 7.0.2
    nwchem revision = N/A
    ga revision     = 5.7.1
    use scalapack   = T
    input           = nwchem/input_2_2_at_worker_3.nw
    prefix          = input_2_2_at_worker_3.
    data base       = ./input_2_2_at_worker_3.db
    status          = startup
    nproc           =        1
    time left       =     -1s



           Memory information
           ------------------

    heap     =   32767998 doubles =    250.0 Mbytes
    stack    =   32767995 doubles =    250.0 Mbytes
    global   =   65536000 doubles =    500.0 Mbytes (distinct from heap & stack)
    total    =  131071993 doubles =   1000.0 Mbytes
    verify   = yes
    hardfail = no 


           Directory information
           ---------------------

  0 permanent = .
  0 scratch   = .




                                NWChem Input Module
                                -------------------



 Scaling coordinates for geometry "geometry" by  1.889725989
 (inverse scale =  0.529177249)



                             Geometry "geometry" -> ""
                             -------------------------

 Output coordinates in angstroms (scale by  1.889725989 to convert to a.u.)

  No.       Tag          Charge          X              Y              Z
 ---- ---------------- ---------- -------------- -------------- --------------
    1 O                    8.0000     0.72656535     1.02514497    -0.55799452
    2 H                    1.0000     1.55140516     0.51827838    -0.74437803
    3 H                    1.0000     1.01122366     1.92996899    -0.38111407
    4 O                    8.0000    -0.79130977    -1.16748782     0.60446122
    5 H                    1.0000    -0.34974813    -0.30646971     0.49198312
    6 H                    1.0000    -1.69492533    -1.00303493     0.26177532

      Atomic Mass 
      ----------- 

      O                 15.994910
      H                  1.007825


 Effective nuclear repulsion energy (a.u.)      36.2300902175

            Nuclear Dipole moment (a.u.) 
            ----------------------------
        X                 Y               Z
 ---------------- ---------------- ----------------
    -0.0000000000    -0.0000000000     0.0000000000


            XYZ format geometry
            -------------------
     6
 geometry
 O                     0.72656535     1.02514497    -0.55799452
 H                     1.55140516     0.51827838    -0.74437803
 H                     1.01122366     1.92996899    -0.38111407
 O                    -0.79130977    -1.16748782     0.60446122
 H                    -0.34974813    -0.30646971     0.49198312
 H                    -1.69492533    -1.00303493     0.26177532

 ==============================================================================
                                internuclear distances
 ------------------------------------------------------------------------------
       center one      |      center two      | atomic units |  angstroms
 ------------------------------------------------------------------------------
    2 H                |   1 O                |     1.86309  |     0.98591
    3 H                |   1 O                |     1.82339  |     0.96490
    5 H                |   4 O                |     1.84089  |     0.97416
    6 H                |   4 O                |     1.85251  |     0.98031
 ------------------------------------------------------------------------------
                         number of included internuclear distances:          4
 ==============================================================================



 ==============================================================================
                                 internuclear angles
 ------------------------------------------------------------------------------
        center 1       |       center 2       |       center 3       |  degrees
 ------------------------------------------------------------------------------
    2 H                |   1 O                |   3 H                |   105.66
    5 H                |   4 O                |   6 H                |   103.25
 ------------------------------------------------------------------------------
                            number of included internuclear angles:          2
 ==============================================================================





 Summary of "ao basis" -> "" (spherical)
 ------------------------------------------------------------------------------
       Tag                 Description            Shells   Functions and Types
 ---------------- ------------------------------  ------  ---------------------
 *                          cc-pvdz                   on all atoms 


                      Basis "ao basis" -> "ao basis" (spherical)
                      -----
  O (Oxygen)
  ----------
            Exponent  Coefficients 
       -------------- ---------------------------------------------------------
  1 S  1.17200000E+04  0.000710
  1 S  1.75900000E+03  0.005470
  1 S  4.00800000E+02  0.027837
  1 S  1.13700000E+02  0.104800
  1 S  3.70300000E+01  0.283062
  1 S  1.32700000E+01  0.448719
  1 S  5.02500000E+00  0.270952
  1 S  1.01300000E+00  0.015458

  2 S  1.17200000E+04 -0.000160
  2 S  1.75900000E+03 -0.001263
  2 S  4.00800000E+02 -0.006267
  2 S  1.13700000E+02 -0.025716
  2 S  3.70300000E+01 -0.070924
  2 S  1.32700000E+01 -0.165411
  2 S  5.02500000E+00 -0.116955
  2 S  1.01300000E+00  0.557368

  3 S  3.02300000E-01  1.000000

  4 P  1.77000000E+01  0.043018
  4 P  3.85400000E+00  0.228913
  4 P  1.04600000E+00  0.508728

  5 P  2.75300000E-01  1.000000

  6 D  1.18500000E+00  1.000000

  H (Hydrogen)
  ------------
            Exponent  Coefficients 
       -------------- ---------------------------------------------------------
  1 S  1.30100000E+01  0.019685
  1 S  1.96200000E+00  0.137977
  1 S  4.44600000E-01  0.478148

  2 S  1.22000000E-01  1.000000

  3 P  7.27000000E-01  1.000000



 Summary of "ao basis" -> "ao basis" (spherical)
 ------------------------------------------------------------------------------
       Tag                 Description            Shells   Functions and Types
 ---------------- ------------------------------  ------  ---------------------
 O                          cc-pvdz                  6       14   3s2p1d
 H                          cc-pvdz                  3        5   2s1p


                                 NWChem SCF Module
                                 -----------------



  ao basis        = "ao basis"
  functions       =    48
  atoms           =     6
  closed shells   =    10
  open shells     =     0
  charge          =   0.00
  wavefunction    = RHF 
  input vectors   = atomic
  output vectors  = ./input_2_2_at_worker_3.movecs
  use symmetry    = F
  symmetry adapt  = F


 Summary of "ao basis" -> "ao basis" (spherical)
 ------------------------------------------------------------------------------
       Tag                 Description            Shells   Functions and Types
 ---------------- ------------------------------  ------  ---------------------
 O                          cc-pvdz                  6       14   3s2p1d
 H                          cc-pvdz                  3        5   2s1p



 Forming initial guess at       0.0s


      Superposition of Atomic Density Guess
      -------------------------------------

 Sum of atomic energies:        -151.52445821

      Non-variational initial energy
      ------------------------------

 Total energy =    -151.811638
 1-e energy   =    -279.363870
 2-e energy   =      91.322141
 HOMO         =      -0.462408
 LUMO         =       0.065768


 Starting SCF solution at       0.1s



 ----------------------------------------------
         Quadratically convergent ROHF

 Convergence threshold     :          1.000E-04
 Maximum no. of iterations :           30
 Final Fock-matrix accuracy:          1.000E-07
 ----------------------------------------------


 Integral file          = ./input_2_2_at_worker_3.aoints.0
 Record size in doubles =  65536        No. of integs per rec  =  43688
 Max. records in memory =     23        Max. records in file   = 400228
 No. of bits per label  =      8        No. of bits per value  =     64


 #quartets = 4.054D+04 #integrals = 5.806D+05 #direct =  0.0% #cached =100.0%


              iter       energy          gnorm     gmax       time
             ----- ------------------- --------- --------- --------
                 1     -151.9943967101  1.12D+00  2.53D-01      0.3
                 2     -152.0538994941  2.43D-01  7.84D-02      0.4
                 3     -152.0585199307  2.06D-02  4.60D-03      0.4
                 4     -152.0585548074  3.53D-04  9.30D-05      0.4
                 5     -152.0585548157  5.74D-06  1.24D-06      0.4


       Final RHF  results 
       ------------------ 

         Total SCF energy =   -152.058554815715
      One-electron energy =   -282.093493847654
      Two-electron energy =     93.804848814471
 Nuclear repulsion energy =     36.230090217469

        Time for solution =      0.3s


             Final eigenvalues
             -----------------

              1      
    1  -20.5819
    2  -20.5207
    3   -1.3559
    4   -1.2965
    5   -0.7200
    6   -0.6620
    7   -0.5917
    8   -0.5365
    9   -0.5153
   10   -0.4615
   11    0.1624
   12    0.2283
   13    0.2401
   14    0.3554
   15    0.7569
   16    0.7925
   17    0.8210
   18    0.8651
   19    1.1300
   20    1.1961

                       ROHF Final Molecular Orbital Analysis
                       -------------------------------------

 Vector    2  Occ=2.000000D+00  E=-2.052069D+01
              MO Center= -7.9D-01, -1.2D+00,  6.0D-01, r^2= 1.5D-02
   Bfn.  Coefficient  Atom+Function         Bfn.  Coefficient  Atom+Function  
  ----- ------------  ---------------      ----- ------------  ---------------
    25      1.000917  4 O  s          

 Vector    3  Occ=2.000000D+00  E=-1.355851D+00
              MO Center=  8.6D-01,  1.1D+00, -5.5D-01, r^2= 5.5D-01
   Bfn.  Coefficient  Atom+Function         Bfn.  Coefficient  Atom+Function  
  ----- ------------  ---------------      ----- ------------  ---------------
     2      0.444487  1 O  s                  3      0.390865  1 O  s          
    20      0.188674  3 H  s                 15      0.177556  2 H  s          

 Vector    4  Occ=2.000000D+00  E=-1.296487D+00
              MO Center= -8.4D-01, -1.0D+00,  5.4D-01, r^2= 5.6D-01
   Bfn.  Coefficient  Atom+Function         Bfn.  Coefficient  Atom+Function  
  ----- ------------  ---------------      ----- ------------  ---------------
    26      0.442765  4 O  s                 27      0.390427  4 O  s          
    44      0.184727  6 H  s                 39      0.183395  5 H  s          

 Vector    5  Occ=2.000000D+00  E=-7.199716D-01
              MO Center=  9.1D-01,  1.1D+00, -5.4D-01, r^2= 8.9D-01
   Bfn.  Coefficient  Atom+Function         Bfn.  Coefficient  Atom+Function  
  ----- ------------  ---------------      ----- ------------  ---------------
     5      0.453436  1 O  py                20      0.329742  3 H  s          
    15     -0.307746  2 H  s                  8      0.212868  1 O  py         

 Vector    6  Occ=2.000000D+00  E=-6.620254D-01
              MO Center= -7.1D-01, -7.8D-01,  4.1D-01, r^2= 1.4D+00
   Bfn.  Coefficient  Atom+Function         Bfn.  Coefficient  Atom+Function  
  ----- ------------  ---------------      ----- ------------  ---------------
    28      0.395733  4 O  px                39      0.308271  5 H  s          
    44     -0.297392  6 H  s                 29      0.227930  4 O  py         
    31      0.186681  4 O  px         

 Vector    7  Occ=2.000000D+00  E=-5.917160D-01
              MO Center=  4.6D-01,  7.0D-01, -3.9D-01, r^2= 1.7D+00
   Bfn.  Coefficient  Atom+Function         Bfn.  Coefficient  Atom+Function  
  ----- ------------  ---------------      ----- ------------  ---------------
     4      0.474778  1 O  px                 7      0.317309  1 O  px         
     3     -0.313721  1 O  s                 15      0.189936  2 H  s          
    20      0.187098  3 H  s                  5      0.172222  1 O  py         
    28      0.170957  4 O  px         

 Vector    8  Occ=2.000000D+00  E=-5.365346D-01
              MO Center= -3.9D-01, -6.2D-01,  3.0D-01, r^2= 2.4D+00
   Bfn.  Coefficient  Atom+Function         Bfn.  Coefficient  Atom+Function  
  ----- ------------  ---------------      ----- ------------  ---------------
    29      0.393619  4 O  py                27     -0.288632  4 O  s          
     6      0.271127  1 O  pz                32      0.271340  4 O  py         
     9      0.213196  1 O  pz                44      0.189467  6 H  s          
    28     -0.185374  4 O  px                30     -0.169983  4 O  pz         
    39      0.169344  5 H  s                  4      0.152804  1 O  px         

 Vector    9  Occ=2.000000D+00  E=-5.152515D-01
              MO Center=  4.3D-01,  5.6D-01, -3.0D-01, r^2= 2.1D+00
   Bfn.  Coefficient  Atom+Function         Bfn.  Coefficient  Atom+Function  
  ----- ------------  ---------------      ----- ------------  ---------------
     6      0.546366  1 O  pz                 9      0.426878  1 O  pz         
    29     -0.250266  4 O  py                32     -0.177154  4 O  py         

 Vector   10  Occ=2.000000D+00  E=-4.614752D-01
              MO Center= -8.0D-01, -1.1D+00,  6.0D-01, r^2= 6.3D-01
   Bfn.  Coefficient  Atom+Function         Bfn.  Coefficient  Atom+Function  
  ----- ------------  ---------------      ----- ------------  ---------------
    30      0.577535  4 O  pz                33      0.458808  4 O  pz         
    28     -0.187535  4 O  px                29      0.159997  4 O  py         
    31     -0.154522  4 O  px         

 Vector   11  Occ=0.000000D+00  E= 1.624168D-01
              MO Center=  1.1D+00,  1.1D+00, -4.6D-01, r^2= 4.0D+00
   Bfn.  Coefficient  Atom+Function         Bfn.  Coefficient  Atom+Function  
  ----- ------------  ---------------      ----- ------------  ---------------
     3      0.939105  1 O  s                 21     -0.799529  3 H  s          
    16     -0.725569  2 H  s                 45     -0.295553  6 H  s          
     7      0.280040  1 O  px                27      0.264149  4 O  s          
     4      0.157768  1 O  px         

 Vector   12  Occ=0.000000D+00  E= 2.283493D-01
              MO Center= -1.5D+00, -5.2D-01,  1.3D-01, r^2= 4.5D+00
   Bfn.  Coefficient  Atom+Function         Bfn.  Coefficient  Atom+Function  
  ----- ------------  ---------------      ----- ------------  ---------------
    45      1.292819  6 H  s                 27     -0.821411  4 O  s          
    21     -0.576311  3 H  s                 31      0.374500  4 O  px         
     3      0.262664  1 O  s                  8      0.184976  1 O  py         
    28      0.178242  4 O  px                33      0.152398  4 O  pz         

 Vector   13  Occ=0.000000D+00  E= 2.400738D-01
              MO Center=  1.3D+00,  1.0D+00, -5.7D-01, r^2= 4.2D+00
   Bfn.  Coefficient  Atom+Function         Bfn.  Coefficient  Atom+Function  
  ----- ------------  ---------------      ----- ------------  ---------------
    16      1.433258  2 H  s                 21     -1.284917  3 H  s          
     8      0.572235  1 O  py                45     -0.288711  6 H  s          
     7     -0.263672  1 O  px                 5      0.241110  1 O  py         
    27      0.203774  4 O  s                  9      0.161366  1 O  pz         

 Vector   14  Occ=0.000000D+00  E= 3.554442D-01
              MO Center= -3.5D-01, -1.5D-01,  5.4D-01, r^2= 3.4D+00
   Bfn.  Coefficient  Atom+Function         Bfn.  Coefficient  Atom+Function  
  ----- ------------  ---------------      ----- ------------  ---------------
    40      1.932198  5 H  s                 45     -0.993422  6 H  s          
    27     -0.531184  4 O  s                 31     -0.496804  4 O  px         
    32     -0.439098  4 O  py                16     -0.327785  2 H  s          
    21     -0.274865  3 H  s                  7      0.250726  1 O  px         
     8      0.205008  1 O  py                28     -0.198311  4 O  px         

 Vector   15  Occ=0.000000D+00  E= 7.569342D-01
              MO Center=  1.0D+00,  1.1D+00, -5.3D-01, r^2= 2.0D+00
   Bfn.  Coefficient  Atom+Function         Bfn.  Coefficient  Atom+Function  
  ----- ------------  ---------------      ----- ------------  ---------------
    15      0.983999  2 H  s                 20     -0.894428  3 H  s          
    16     -0.769588  2 H  s                 21      0.648915  3 H  s          
     8      0.417364  1 O  py                40      0.284668  5 H  s          
     5      0.245260  1 O  py         

 Vector   16  Occ=0.000000D+00  E= 7.925473D-01
              MO Center= -7.9D-01, -7.1D-01,  4.2D-01, r^2= 2.4D+00
   Bfn.  Coefficient  Atom+Function         Bfn.  Coefficient  Atom+Function  
  ----- ------------  ---------------      ----- ------------  ---------------
    44     -0.922015  6 H  s                 39      0.888874  5 H  s          
    40     -0.851970  5 H  s                 45      0.743449  6 H  s          
    31     -0.343667  4 O  px                20      0.297790  3 H  s          
    28     -0.217627  4 O  px                15      0.215902  2 H  s          
     8     -0.196935  1 O  py                 7     -0.172393  1 O  px         

 Vector   17  Occ=0.000000D+00  E= 8.210145D-01
              MO Center=  1.1D+00,  1.1D+00, -5.1D-01, r^2= 2.5D+00
   Bfn.  Coefficient  Atom+Function         Bfn.  Coefficient  Atom+Function  
  ----- ------------  ---------------      ----- ------------  ---------------
    20      0.810894  3 H  s                 15      0.782976  2 H  s          
    16     -0.613259  2 H  s                 21     -0.557604  3 H  s          
    40      0.355523  5 H  s                 44      0.295170  6 H  s          
    45     -0.286517  6 H  s                  3      0.283291  1 O  s          
    23      0.267091  3 H  py                 2     -0.262235  1 O  s          

 Vector   18  Occ=0.000000D+00  E= 8.651313D-01
              MO Center= -9.2D-01, -5.7D-01,  3.7D-01, r^2= 2.0D+00
   Bfn.  Coefficient  Atom+Function         Bfn.  Coefficient  Atom+Function  
  ----- ------------  ---------------      ----- ------------  ---------------
    39      0.781436  5 H  s                 44      0.752951  6 H  s          
    40     -0.740443  5 H  s                 45     -0.481062  6 H  s          
    27      0.385631  4 O  s                 46     -0.270200  6 H  px         
    29     -0.265575  4 O  py                26     -0.231754  4 O  s          
    41      0.227634  5 H  px                21      0.211088  3 H  s          

 Vector   19  Occ=0.000000D+00  E= 1.130005D+00
              MO Center=  2.4D-01,  3.0D-01, -1.9D-01, r^2= 2.9D+00
   Bfn.  Coefficient  Atom+Function         Bfn.  Coefficient  Atom+Function  
  ----- ------------  ---------------      ----- ------------  ---------------
     7      0.819334  1 O  px                 4     -0.510614  1 O  px         
     3      0.504933  1 O  s                  9      0.464417  1 O  pz         
     8      0.454504  1 O  py                32     -0.450687  4 O  py         
    33      0.431204  4 O  pz                 6     -0.425129  1 O  pz         
    30     -0.398150  4 O  pz                20     -0.395292  3 H  s          

 Vector   20  Occ=0.000000D+00  E= 1.196081D+00
              MO Center=  1.7D-01,  2.6D-01, -1.1D-01, r^2= 3.4D+00
   Bfn.  Coefficient  Atom+Function         Bfn.  Coefficient  Atom+Function  
  ----- ------------  ---------------      ----- ------------  ---------------
     8      1.159947  1 O  py                16      0.674049  2 H  s          
    21     -0.640314  3 H  s                 31     -0.593266  4 O  px         
     7     -0.590034  1 O  px                 5     -0.518078  1 O  py         
    30     -0.360021  4 O  pz                28      0.355634  4 O  px         
     4      0.301913  1 O  px                33      0.300336  4 O  pz         


 center of mass
 --------------
 x =  -0.02694286 y =  -0.05923480 z =   0.01933674

 moments of inertia (a.u.)
 ------------------
         198.362190542021        -111.677640916130          58.218594785184
        -111.677640916130         131.290189592967          78.464335260903
          58.218594785184          78.464335260903         245.101670483229

  Mulliken analysis of the total density
  --------------------------------------

    Atom       Charge   Shell Charges
 -----------   ------   -------------------------------------------------------
    1 O    8     8.32   2.00  0.83  0.84  2.81  1.82  0.01
    2 H    1     0.81   0.66  0.07  0.08
    3 H    1     0.83   0.68  0.07  0.08
    4 O    8     8.36   2.00  0.83  0.84  2.81  1.86  0.01
    5 H    1     0.83   0.65  0.09  0.09
    6 H    1     0.84   0.68  0.08  0.08

       Multipole analysis of the density wrt the origin
       ------------------------------------------------

     L   x y z        total         open         nuclear
     -   - - -        -----         ----         -------
     0   0 0 0     -0.000000      0.000000     20.000000

     1   1 0 0      0.573155      0.000000     -0.000000
     1   0 1 0      1.114015      0.000000     -0.000000
     1   0 0 1     -0.388743      0.000000      0.000000

     2   2 0 0     -4.293195      0.000000     55.912417
     2   1 1 0      1.584371      0.000000     63.966265
     2   1 0 1     -0.439838      0.000000    -32.946167
     2   0 2 0     -9.255114      0.000000     87.151809
     2   0 1 1      1.443700      0.000000    -41.983190
     2   0 0 2    -10.895634      0.000000     22.939697


 Parallel integral file used      14 records with       0 large values

                              NWChem Gradients Module
                              -----------------------



  wavefunction    =   RHF     



                         RHF ENERGY GRADIENTS

    atom               coordinates                        gradient
                 x          y          z           x          y          z
   1 O       1.373009   1.937243  -1.054457   -0.036327   0.001279   0.003135
   2 H       2.931731   0.979404  -1.406671    0.032214  -0.021983  -0.007239
   3 H       1.910936   3.647113  -0.720201    0.003547   0.019481   0.003847
   4 O      -1.495359  -2.206232   1.142266    0.021804  -0.027907   0.012491
   5 H      -0.660928  -0.579144   0.929713    0.011751   0.023117  -0.000390
   6 H      -3.202944  -1.895461   0.494684   -0.032989   0.006012  -0.011844

                 ----------------------------------------
                 |  Time  |  1-e(secs)   |  2-e(secs)   |
                 ----------------------------------------
                 |  CPU   |       0.00   |       0.24   |
                 ----------------------------------------
                 |  WALL  |       0.00   |       0.24   |
                 ----------------------------------------

 Task  times  cpu:        0.7s     wall:        0.7s


                                NWChem Input Module
                                -------------------


 Summary of allocated global arrays
-----------------------------------
  No active global arrays



                         GA Statistics for process    0
                         ------------------------------

       create   destroy   get      put      acc     scatter   gather  read&inc
calls:  249      249     6359     2328     2356        0        0      115     
number of processes/call 0.00e+00 0.00e+00 0.00e+00 0.00e+00 0.00e+00
bytes total:             6.37e+06 3.81e+06 9.06e+05 0.00e+00 0.00e+00 9.20e+02
bytes remote:            0.00e+00 0.00e+00 0.00e+00 0.00e+00 0.00e+00 0.00e+00
Max memory consumed for GA by this process: 239616 bytes

MA_summarize_allocated_blocks: starting scan ...
MA_summarize_allocated_blocks: scan completed: 0 heap blocks, 0 stack blocks
MA usage statistics:

	allocation statistics:
					      heap	     stack
					      ----	     -----
	current number of blocks	         0	         0
	maximum number of blocks	        18	        28
	current total bytes		         0	         0
	maximum total bytes		  12084288	  22510264
	maximum total K-bytes		     12085	     22511
	maximum total M-bytes		        13	        23


                                     CITATION
                                     --------
                Please cite the following reference when publishing
                           results obtained with NWChem:

          E. Aprà, E. J. Bylaska, W. A. de Jong, N. Govind, K. Kowalski,
       T. P. Straatsma, M. Valiev, H. J. J. van Dam, Y. Alexeev, J. Anchell,
       V. Anisimov, F. W. Aquino, R. Atta-Fynn, J. Autschbach, N. P. Bauman,
     J. C. Becca, D. E. Bernholdt, K. Bhaskaran-Nair, S. Bogatko, P. Borowski,
        J. Boschen, J. Brabec, A. Bruner, E. Cauët, Y. Chen, G. N. Chuev,
      C. J. Cramer, J. Daily, M. J. O. Deegan, T. H. Dunning Jr., M. Dupuis,
   K. G. Dyall, G. I. Fann, S. A. Fischer, A. Fonari, H. Früchtl, L. Gagliardi,
      J. Garza, N. Gawande, S. Ghosh, K. Glaesemann, A. W. Götz, J. Hammond,
       V. Helms, E. D. Hermes, K. Hirao, S. Hirata, M. Jacquelin, L. Jensen,
   B. G. Johnson, H. Jónsson, R. A. Kendall, M. Klemm, R. Kobayashi, V. Konkov,
      S. Krishnamoorthy, M. Krishnan, Z. Lin, R. D. Lins, R. J. Littlefield,
      A. J. Logsdail, K. Lopata, W. Ma, A. V. Marenich, J. Martin del Campo,
   D. Mejia-Rodriguez, J. E. Moore, J. M. Mullin, T. Nakajima, D. R. Nascimento,
    J. A. Nichols, P. J. Nichols, J. Nieplocha, A. Otero-de-la-Roza, B. Palmer,
    A. Panyala, T. Pirojsirikul, B. Peng, R. Peverati, J. Pittner, L. Pollack,
   R. M. Richard, P. Sadayappan, G. C. Schatz, W. A. Shelton, D. W. Silverstein,
   D. M. A. Smith, T. A. Soares, D. Song, M. Swart, H. L. Taylor, G. S. Thomas,
            V. Tipparaju, D. G. Truhlar, K. Tsemekhman, T. Van Voorhis,
     Á. Vázquez-Mayagoitia, P. Verma, O. Villa, A. Vishnu, K. D. Vogiatzis,
        D. Wang, J. H. Weare, M. J. Williamson, T. L. Windus, K. Woliński,
        A. T. Wong, Q. Wu, C. Yang, Q. Yu, M. Zacharias, Z. Zhang, Y. Zhao,
                                and R. J. Harrison
                        "NWChem: Past, present, and future
                         J. Chem. Phys. 152, 184102 (2020)
                               doi:10.1063/5.0004997

                                      AUTHORS
                                      -------
     E. Apra, E. J. Bylaska, N. Govind, K. Kowalski, M. Valiev, W. A. de Jong,
      T. P. Straatsma, H. J. J. van Dam, D. Wang, T. L. Windus, N. P. Bauman,
       A. Panyala, J. Hammond, J. Autschbach, K. Bhaskaran-Nair, J. Brabec,
    K. Lopata, S. A. Fischer, S. Krishnamoorthy, M. Jacquelin, W. Ma, M. Klemm,
       O. Villa, Y. Chen, V. Anisimov, F. Aquino, S. Hirata, M. T. Hackler,
           Eric Hermes, L. Jensen, J. E. Moore, J. C. Becca, V. Konjkov,
            D. Mejia-Rodriguez, T. Risthaus, M. Malagoli, A. Marenich,
   A. Otero-de-la-Roza, J. Mullin, P. Nichols, R. Peverati, J. Pittner, Y. Zhao,
        P.-D. Fan, A. Fonari, M. J. Williamson, R. J. Harrison, J. R. Rehr,
      M. Dupuis, D. Silverstein, D. M. A. Smith, J. Nieplocha, V. Tipparaju,
      M. Krishnan, B. E. Van Kuiken, A. Vazquez-Mayagoitia, M. Swart, Q. Wu,
   T. Van Voorhis, A. A. Auer, M. Nooijen, L. D. Crosby, E. Brown, G. Cisneros,
     G. I. Fann, H. Fruchtl, J. Garza, K. Hirao, R. A. Kendall, J. A. Nichols,
       K. Tsemekhman, K. Wolinski, J. Anchell, D. E. Bernholdt, P. Borowski,
       T. Clark, D. Clerc, H. Dachsel, M. J. O. Deegan, K. Dyall, D. Elwood,
      E. Glendening, M. Gutowski, A. C. Hess, J. Jaffe, B. G. Johnson, J. Ju,
        R. Kobayashi, R. Kutteh, Z. Lin, R. Littlefield, X. Long, B. Meng,
      T. Nakajima, S. Niu, L. Pollack, M. Rosing, K. Glaesemann, G. Sandrone,
      M. Stave, H. Taylor, G. Thomas, J. H. van Lenthe, A. T. Wong, Z. Zhang.

 Total times  cpu:        0.7s     wall:        0.7s
