 argument  1 = nwchem/input_2_9_at_worker_5.nw



============================== echo of input deck ==============================
echo
memory 1000 mb
geometry noautosym noautoz
O -0.82054445 0.61636011 -1.6312343
H -0.26682713 1.17302621 -1.05309865
H -0.36885969 -0.24447946 -1.58195952
O -2.88801599 -0.0663369 0.05761427
H -2.29024563 0.26724676 -0.65069518
H -3.66545029 0.50362404 0.03495814
end
basis spherical
 * library cc-pvdz
end
task scf gradient
================================================================================


                                         
                                         


             Northwest Computational Chemistry Package (NWChem) 7.0.2
             --------------------------------------------------------


                    Environmental Molecular Sciences Laboratory
                       Pacific Northwest National Laboratory
                                Richland, WA 99352

                              Copyright (c) 1994-2020
                       Pacific Northwest National Laboratory
                            Battelle Memorial Institute

             NWChem is an open-source computational chemistry package
                        distributed under the terms of the
                      Educational Community License (ECL) 2.0
             A copy of the license is included with this distribution
                              in the LICENSE.TXT file

                                  ACKNOWLEDGMENT
                                  --------------

            This software and its documentation were developed at the
            EMSL at Pacific Northwest National Laboratory, a multiprogram
            national laboratory, operated for the U.S. Department of Energy
            by Battelle under Contract Number DE-AC05-76RL01830. Support
            for this work was provided by the Department of Energy Office
            of Biological and Environmental Research, Office of Basic
            Energy Sciences, and the Office of Advanced Scientific Computing.


           Job information
           ---------------

    hostname        = pop-os
    program         = nwchem
    date            = Thu Jul  8 18:19:40 2021

    compiled        = Wed_Jan_06_19:48:08_2021
    source          = /build/nwchem-ksKH2r/nwchem-7.0.2
    nwchem branch   = 7.0.2
    nwchem revision = N/A
    ga revision     = 5.7.1
    use scalapack   = T
    input           = nwchem/input_2_9_at_worker_5.nw
    prefix          = input_2_9_at_worker_5.
    data base       = ./input_2_9_at_worker_5.db
    status          = startup
    nproc           =        1
    time left       =     -1s



           Memory information
           ------------------

    heap     =   32767998 doubles =    250.0 Mbytes
    stack    =   32767995 doubles =    250.0 Mbytes
    global   =   65536000 doubles =    500.0 Mbytes (distinct from heap & stack)
    total    =  131071993 doubles =   1000.0 Mbytes
    verify   = yes
    hardfail = no 


           Directory information
           ---------------------

  0 permanent = .
  0 scratch   = .




                                NWChem Input Module
                                -------------------



 Scaling coordinates for geometry "geometry" by  1.889725989
 (inverse scale =  0.529177249)



                             Geometry "geometry" -> ""
                             -------------------------

 Output coordinates in angstroms (scale by  1.889725989 to convert to a.u.)

  No.       Tag          Charge          X              Y              Z
 ---- ---------------- ---------- -------------- -------------- --------------
    1 O                    8.0000     0.99244886     0.31137995    -0.83924653
    2 H                    1.0000     1.54616618     0.86804605    -0.26111088
    3 H                    1.0000     1.44413362    -0.54945962    -0.78997175
    4 O                    8.0000    -1.07502268    -0.37131706     0.84960204
    5 H                    1.0000    -0.47725232    -0.03773340     0.14129259
    6 H                    1.0000    -1.85245698     0.19864388     0.82694591

      Atomic Mass 
      ----------- 

      O                 15.994910
      H                  1.007825


 Effective nuclear repulsion energy (a.u.)      37.5254546067

            Nuclear Dipole moment (a.u.) 
            ----------------------------
        X                 Y               Z
 ---------------- ---------------- ----------------
    -0.0000000000     0.0000000000     0.0000000000


            XYZ format geometry
            -------------------
     6
 geometry
 O                     0.99244886     0.31137995    -0.83924653
 H                     1.54616618     0.86804605    -0.26111088
 H                     1.44413362    -0.54945962    -0.78997175
 O                    -1.07502268    -0.37131706     0.84960204
 H                    -0.47725232    -0.03773340     0.14129259
 H                    -1.85245698     0.19864388     0.82694591

 ==============================================================================
                                internuclear distances
 ------------------------------------------------------------------------------
       center one      |      center two      | atomic units |  angstroms
 ------------------------------------------------------------------------------
    2 H                |   1 O                |     1.84258  |     0.97505
    3 H                |   1 O                |     1.83944  |     0.97339
    5 H                |   4 O                |     1.86146  |     0.98504
    6 H                |   4 O                |     1.82216  |     0.96425
 ------------------------------------------------------------------------------
                         number of included internuclear distances:          4
 ==============================================================================



 ==============================================================================
                                 internuclear angles
 ------------------------------------------------------------------------------
        center 1       |       center 2       |       center 3       |  degrees
 ------------------------------------------------------------------------------
    2 H                |   1 O                |   3 H                |   102.20
    5 H                |   4 O                |   6 H                |   105.80
 ------------------------------------------------------------------------------
                            number of included internuclear angles:          2
 ==============================================================================





 Summary of "ao basis" -> "" (spherical)
 ------------------------------------------------------------------------------
       Tag                 Description            Shells   Functions and Types
 ---------------- ------------------------------  ------  ---------------------
 *                          cc-pvdz                   on all atoms 


                      Basis "ao basis" -> "ao basis" (spherical)
                      -----
  O (Oxygen)
  ----------
            Exponent  Coefficients 
       -------------- ---------------------------------------------------------
  1 S  1.17200000E+04  0.000710
  1 S  1.75900000E+03  0.005470
  1 S  4.00800000E+02  0.027837
  1 S  1.13700000E+02  0.104800
  1 S  3.70300000E+01  0.283062
  1 S  1.32700000E+01  0.448719
  1 S  5.02500000E+00  0.270952
  1 S  1.01300000E+00  0.015458

  2 S  1.17200000E+04 -0.000160
  2 S  1.75900000E+03 -0.001263
  2 S  4.00800000E+02 -0.006267
  2 S  1.13700000E+02 -0.025716
  2 S  3.70300000E+01 -0.070924
  2 S  1.32700000E+01 -0.165411
  2 S  5.02500000E+00 -0.116955
  2 S  1.01300000E+00  0.557368

  3 S  3.02300000E-01  1.000000

  4 P  1.77000000E+01  0.043018
  4 P  3.85400000E+00  0.228913
  4 P  1.04600000E+00  0.508728

  5 P  2.75300000E-01  1.000000

  6 D  1.18500000E+00  1.000000

  H (Hydrogen)
  ------------
            Exponent  Coefficients 
       -------------- ---------------------------------------------------------
  1 S  1.30100000E+01  0.019685
  1 S  1.96200000E+00  0.137977
  1 S  4.44600000E-01  0.478148

  2 S  1.22000000E-01  1.000000

  3 P  7.27000000E-01  1.000000



 Summary of "ao basis" -> "ao basis" (spherical)
 ------------------------------------------------------------------------------
       Tag                 Description            Shells   Functions and Types
 ---------------- ------------------------------  ------  ---------------------
 O                          cc-pvdz                  6       14   3s2p1d
 H                          cc-pvdz                  3        5   2s1p


                                 NWChem SCF Module
                                 -----------------



  ao basis        = "ao basis"
  functions       =    48
  atoms           =     6
  closed shells   =    10
  open shells     =     0
  charge          =   0.00
  wavefunction    = RHF 
  input vectors   = atomic
  output vectors  = ./input_2_9_at_worker_5.movecs
  use symmetry    = F
  symmetry adapt  = F


 Summary of "ao basis" -> "ao basis" (spherical)
 ------------------------------------------------------------------------------
       Tag                 Description            Shells   Functions and Types
 ---------------- ------------------------------  ------  ---------------------
 O                          cc-pvdz                  6       14   3s2p1d
 H                          cc-pvdz                  3        5   2s1p



 Forming initial guess at       0.0s


      Superposition of Atomic Density Guess
      -------------------------------------

 Sum of atomic energies:        -151.52445821

      Non-variational initial energy
      ------------------------------

 Total energy =    -151.854602
 1-e energy   =    -281.933716
 2-e energy   =      92.553660
 HOMO         =      -0.461513
 LUMO         =       0.068606


 Starting SCF solution at       0.1s



 ----------------------------------------------
         Quadratically convergent ROHF

 Convergence threshold     :          1.000E-04
 Maximum no. of iterations :           30
 Final Fock-matrix accuracy:          1.000E-07
 ----------------------------------------------


 Integral file          = ./input_2_9_at_worker_5.aoints.0
 Record size in doubles =  65536        No. of integs per rec  =  43688
 Max. records in memory =     23        Max. records in file   = 400308
 No. of bits per label  =      8        No. of bits per value  =     64


 #quartets = 4.264D+04 #integrals = 6.255D+05 #direct =  0.0% #cached =100.0%


              iter       energy          gnorm     gmax       time
             ----- ------------------- --------- --------- --------
                 1     -151.9947998988  1.11D+00  2.64D-01      0.3
                 2     -152.0535808726  2.43D-01  7.89D-02      0.3
                 3     -152.0583026889  2.08D-02  4.88D-03      0.3
                 4     -152.0583409395  3.82D-04  1.06D-04      0.4
                 5     -152.0583409505  8.11D-06  2.26D-06      0.4


       Final RHF  results 
       ------------------ 

         Total SCF energy =   -152.058340950537
      One-electron energy =   -284.611730869135
      Two-electron energy =     95.027935311912
 Nuclear repulsion energy =     37.525454606686

        Time for solution =      0.3s


             Final eigenvalues
             -----------------

              1      
    1  -20.5909
    2  -20.5140
    3   -1.3685
    4   -1.2940
    5   -0.7210
    6   -0.6742
    7   -0.6049
    8   -0.5445
    9   -0.5071
   10   -0.4588
   11    0.1622
   12    0.2317
   13    0.2379
   14    0.3883
   15    0.7360
   16    0.7999
   17    0.8275
   18    0.8601
   19    1.1108
   20    1.1933

                       ROHF Final Molecular Orbital Analysis
                       -------------------------------------

 Vector    2  Occ=2.000000D+00  E=-2.051395D+01
              MO Center= -1.1D+00, -3.7D-01,  8.5D-01, r^2= 1.5D-02
   Bfn.  Coefficient  Atom+Function         Bfn.  Coefficient  Atom+Function  
  ----- ------------  ---------------      ----- ------------  ---------------
    25      1.000962  4 O  s          

 Vector    3  Occ=2.000000D+00  E=-1.368468D+00
              MO Center=  1.1D+00,  2.6D-01, -7.3D-01, r^2= 5.8D-01
   Bfn.  Coefficient  Atom+Function         Bfn.  Coefficient  Atom+Function  
  ----- ------------  ---------------      ----- ------------  ---------------
     2      0.443085  1 O  s                  3      0.387834  1 O  s          
    15      0.183204  2 H  s                 20      0.184114  3 H  s          

 Vector    4  Occ=2.000000D+00  E=-1.294016D+00
              MO Center= -1.1D+00, -2.4D-01,  7.4D-01, r^2= 6.0D-01
   Bfn.  Coefficient  Atom+Function         Bfn.  Coefficient  Atom+Function  
  ----- ------------  ---------------      ----- ------------  ---------------
    26      0.440510  4 O  s                 27      0.390227  4 O  s          
    44      0.191030  6 H  s                 39      0.174647  5 H  s          

 Vector    5  Occ=2.000000D+00  E=-7.210092D-01
              MO Center=  1.2D+00,  2.6D-01, -7.2D-01, r^2= 7.9D-01
   Bfn.  Coefficient  Atom+Function         Bfn.  Coefficient  Atom+Function  
  ----- ------------  ---------------      ----- ------------  ---------------
     5      0.462514  1 O  py                15      0.319830  2 H  s          
    20     -0.316257  3 H  s                  8      0.222653  1 O  py         
     6      0.169106  1 O  pz         

 Vector    6  Occ=2.000000D+00  E=-6.742085D-01
              MO Center= -8.3D-01, -1.4D-01,  5.1D-01, r^2= 1.5D+00
   Bfn.  Coefficient  Atom+Function         Bfn.  Coefficient  Atom+Function  
  ----- ------------  ---------------      ----- ------------  ---------------
    28      0.393547  4 O  px                39      0.302672  5 H  s          
    44     -0.295406  6 H  s                 30     -0.205054  4 O  pz         
     4     -0.190784  1 O  px                31      0.181715  4 O  px         

 Vector    7  Occ=2.000000D+00  E=-6.049402D-01
              MO Center=  7.7D-01,  2.7D-01, -7.1D-01, r^2= 1.3D+00
   Bfn.  Coefficient  Atom+Function         Bfn.  Coefficient  Atom+Function  
  ----- ------------  ---------------      ----- ------------  ---------------
     4      0.411594  1 O  px                 3     -0.331898  1 O  s          
     6      0.286342  1 O  pz                 7      0.264336  1 O  px         
    15      0.200466  2 H  s                  9      0.194777  1 O  pz         
    20      0.193107  3 H  s          

 Vector    8  Occ=2.000000D+00  E=-5.444778D-01
              MO Center= -2.0D-01, -8.5D-02,  1.4D-01, r^2= 2.6D+00
   Bfn.  Coefficient  Atom+Function         Bfn.  Coefficient  Atom+Function  
  ----- ------------  ---------------      ----- ------------  ---------------
     6      0.353961  1 O  pz                29      0.322886  4 O  py         
    27     -0.274554  4 O  s                  9      0.271264  1 O  pz         
    32      0.219112  4 O  py                44      0.210560  6 H  s          
    30     -0.186906  4 O  pz                 4     -0.157319  1 O  px         

 Vector    9  Occ=2.000000D+00  E=-5.071058D-01
              MO Center=  1.9D-02, -3.6D-02, -3.6D-03, r^2= 2.5D+00
   Bfn.  Coefficient  Atom+Function         Bfn.  Coefficient  Atom+Function  
  ----- ------------  ---------------      ----- ------------  ---------------
     6      0.338895  1 O  pz                30      0.306470  4 O  pz         
     4     -0.302134  1 O  px                 9      0.269461  1 O  pz         
    29     -0.255208  4 O  py                 7     -0.224706  1 O  px         
    33      0.217128  4 O  pz                32     -0.182775  4 O  py         
    39     -0.180281  5 H  s                 27      0.162892  4 O  s          

 Vector   10  Occ=2.000000D+00  E=-4.588036D-01
              MO Center= -1.1D+00, -3.5D-01,  8.3D-01, r^2= 6.3D-01
   Bfn.  Coefficient  Atom+Function         Bfn.  Coefficient  Atom+Function  
  ----- ------------  ---------------      ----- ------------  ---------------
    30      0.402473  4 O  pz                29      0.391717  4 O  py         
    33      0.322076  4 O  pz                32      0.314964  4 O  py         
    28      0.274786  4 O  px                31      0.221927  4 O  px         

 Vector   11  Occ=0.000000D+00  E= 1.621828D-01
              MO Center=  1.3D+00,  1.9D-01, -3.3D-01, r^2= 3.9D+00
   Bfn.  Coefficient  Atom+Function         Bfn.  Coefficient  Atom+Function  
  ----- ------------  ---------------      ----- ------------  ---------------
     3      0.927550  1 O  s                 16     -0.809362  2 H  s          
    21     -0.738320  3 H  s                 45     -0.351817  6 H  s          
     7      0.269418  1 O  px                27      0.254061  4 O  s          
     9      0.174642  1 O  pz         

 Vector   12  Occ=0.000000D+00  E= 2.316982D-01
              MO Center= -1.7D+00,  2.9D-01,  6.8D-01, r^2= 3.7D+00
   Bfn.  Coefficient  Atom+Function         Bfn.  Coefficient  Atom+Function  
  ----- ------------  ---------------      ----- ------------  ---------------
    45      1.362470  6 H  s                 27     -0.846563  4 O  s          
    31      0.336948  4 O  px                21     -0.318432  3 H  s          
     3      0.288193  1 O  s                 32     -0.267511  4 O  py         
    16     -0.215439  2 H  s                 28      0.155735  4 O  px         

 Vector   13  Occ=0.000000D+00  E= 2.379108D-01
              MO Center=  1.6D+00,  9.2D-02, -4.6D-01, r^2= 3.6D+00
   Bfn.  Coefficient  Atom+Function         Bfn.  Coefficient  Atom+Function  
  ----- ------------  ---------------      ----- ------------  ---------------
    21     -1.422955  3 H  s                 16      1.395663  2 H  s          
     8     -0.617163  1 O  py                 5     -0.273513  1 O  py         
     9     -0.228600  1 O  pz         

 Vector   14  Occ=0.000000D+00  E= 3.882865D-01
              MO Center= -5.4D-01,  4.5D-02,  4.5D-02, r^2= 3.4D+00
   Bfn.  Coefficient  Atom+Function         Bfn.  Coefficient  Atom+Function  
  ----- ------------  ---------------      ----- ------------  ---------------
    40      2.150244  5 H  s                 45     -1.001149  6 H  s          
    27     -0.592960  4 O  s                 31     -0.571364  4 O  px         
    33      0.408368  4 O  pz                21     -0.377321  3 H  s          
     7      0.365583  1 O  px                16     -0.346953  2 H  s          
    28     -0.211161  4 O  px                 4      0.209096  1 O  px         

 Vector   15  Occ=0.000000D+00  E= 7.359811D-01
              MO Center=  1.2D+00,  2.1D-01, -5.8D-01, r^2= 2.0D+00
   Bfn.  Coefficient  Atom+Function         Bfn.  Coefficient  Atom+Function  
  ----- ------------  ---------------      ----- ------------  ---------------
    20     -0.932767  3 H  s                 15      0.926689  2 H  s          
    16     -0.701593  2 H  s                 21      0.685497  3 H  s          
     8     -0.422184  1 O  py                44      0.229115  6 H  s          
     5     -0.225280  1 O  py                 9     -0.151131  1 O  pz         

 Vector   16  Occ=0.000000D+00  E= 7.999048D-01
              MO Center= -6.0D-01, -1.1D-01,  2.9D-01, r^2= 1.8D+00
   Bfn.  Coefficient  Atom+Function         Bfn.  Coefficient  Atom+Function  
  ----- ------------  ---------------      ----- ------------  ---------------
    40     -1.257747  5 H  s                 39      1.170064  5 H  s          
    45      0.474557  6 H  s                 44     -0.402827  6 H  s          
    21      0.261565  3 H  s                  3      0.238175  1 O  s          
    27      0.235430  4 O  s                 20     -0.223285  3 H  s          
    31     -0.220166  4 O  px                28     -0.190426  4 O  px         

 Vector   17  Occ=0.000000D+00  E= 8.275099D-01
              MO Center=  5.5D-01,  2.3D-01, -8.4D-02, r^2= 4.0D+00
   Bfn.  Coefficient  Atom+Function         Bfn.  Coefficient  Atom+Function  
  ----- ------------  ---------------      ----- ------------  ---------------
    15      0.801257  2 H  s                 44     -0.695008  6 H  s          
    20      0.628424  3 H  s                 16     -0.594595  2 H  s          
    21     -0.395527  3 H  s                 45      0.393965  6 H  s          
    31     -0.254754  4 O  px                40      0.237142  5 H  s          
     2     -0.217177  1 O  s                 23     -0.197926  3 H  py         

 Vector   18  Occ=0.000000D+00  E= 8.600871D-01
              MO Center= -5.3D-01,  4.3D-02,  2.4D-01, r^2= 4.2D+00
   Bfn.  Coefficient  Atom+Function         Bfn.  Coefficient  Atom+Function  
  ----- ------------  ---------------      ----- ------------  ---------------
    44      0.910640  6 H  s                 45     -0.688222  6 H  s          
    20      0.509728  3 H  s                 21     -0.504281  3 H  s          
     3      0.367471  1 O  s                 15      0.269770  2 H  s          
     2     -0.228356  1 O  s                 39      0.228443  5 H  s          
    46     -0.225488  6 H  px                16     -0.212821  2 H  s          

 Vector   19  Occ=0.000000D+00  E= 1.110770D+00
              MO Center=  4.6D-01,  1.8D-01, -4.9D-01, r^2= 2.4D+00
   Bfn.  Coefficient  Atom+Function         Bfn.  Coefficient  Atom+Function  
  ----- ------------  ---------------      ----- ------------  ---------------
     9      0.832072  1 O  pz                 7      0.669696  1 O  px         
     3      0.628226  1 O  s                  6     -0.593491  1 O  pz         
    31      0.528061  4 O  px                15     -0.421367  2 H  s          
    20     -0.406720  3 H  s                  8     -0.355521  1 O  py         
    28     -0.312052  4 O  px                45      0.306030  6 H  s          

 Vector   20  Occ=0.000000D+00  E= 1.193293D+00
              MO Center= -2.7D-01, -1.6D-01,  2.2D-01, r^2= 3.2D+00
   Bfn.  Coefficient  Atom+Function         Bfn.  Coefficient  Atom+Function  
  ----- ------------  ---------------      ----- ------------  ---------------
    32      0.823859  4 O  py                 8      0.793448  1 O  py         
    16     -0.558694  2 H  s                 27      0.555529  4 O  s          
    29     -0.556855  4 O  py                21      0.501437  3 H  s          
    33     -0.491137  4 O  pz                 9      0.433006  1 O  pz         
    44     -0.386763  6 H  s                 39     -0.379129  5 H  s          


 center of mass
 --------------
 x =  -0.03436241 y =  -0.02494234 z =   0.00430936

 moments of inertia (a.u.)
 ------------------
         103.820806339236         -41.135914911342         111.053278324569
         -41.135914911342         237.991714860777          31.623617506116
         111.053278324569          31.623617506116         168.844102011811

  Mulliken analysis of the total density
  --------------------------------------

    Atom       Charge   Shell Charges
 -----------   ------   -------------------------------------------------------
    1 O    8     8.31   2.00  0.84  0.84  2.81  1.80  0.01
    2 H    1     0.82   0.67  0.07  0.08
    3 H    1     0.82   0.67  0.07  0.08
    4 O    8     8.38   2.00  0.83  0.84  2.82  1.88  0.01
    5 H    1     0.82   0.64  0.09  0.09
    6 H    1     0.85   0.69  0.08  0.08

       Multipole analysis of the density wrt the origin
       ------------------------------------------------

     L   x y z        total         open         nuclear
     -   - - -        -----         ----         -------
     0   0 0 0     -0.000000      0.000000     20.000000

     1   1 0 0      0.779332      0.000000     -0.000000
     1   0 1 0      0.459267      0.000000      0.000000
     1   0 0 1     -0.218246      0.000000      0.000000

     2   2 0 0     -4.833555      0.000000     90.207036
     2   1 1 0     -1.806429      0.000000     20.941803
     2   1 0 1      0.525729      0.000000    -61.114714
     2   0 2 0     -8.910822      0.000000     10.623787
     2   0 1 1      2.130735      0.000000    -15.169998
     2   0 0 2    -12.153489      0.000000     45.728565


 Parallel integral file used      15 records with       0 large values

                              NWChem Gradients Module
                              -----------------------



  wavefunction    =   RHF     



                         RHF ENERGY GRADIENTS

    atom               coordinates                        gradient
                 x          y          z           x          y          z
   1 O       1.875456   0.588423  -1.585946   -0.036847   0.006354  -0.016548
   2 H       2.921830   1.640369  -0.493428    0.017066   0.013269   0.017048
   3 H       2.729017  -1.038328  -1.492830    0.013749  -0.021288   0.003721
   4 O      -2.031498  -0.701688   1.605515   -0.001342  -0.020868   0.020027
   5 H      -0.901876  -0.071306   0.267004    0.024775   0.010998  -0.025539
   6 H      -3.500636   0.375382   1.562701   -0.017401   0.011535   0.001291

                 ----------------------------------------
                 |  Time  |  1-e(secs)   |  2-e(secs)   |
                 ----------------------------------------
                 |  CPU   |       0.00   |       0.35   |
                 ----------------------------------------
                 |  WALL  |       0.00   |       0.35   |
                 ----------------------------------------

 Task  times  cpu:        0.7s     wall:        0.8s


                                NWChem Input Module
                                -------------------


 Summary of allocated global arrays
-----------------------------------
  No active global arrays



                         GA Statistics for process    0
                         ------------------------------

       create   destroy   get      put      acc     scatter   gather  read&inc
calls:  249      249     6359     2329     2356        0        0      115     
number of processes/call 0.00e+00 0.00e+00 0.00e+00 0.00e+00 0.00e+00
bytes total:             6.37e+06 3.81e+06 9.06e+05 0.00e+00 0.00e+00 9.20e+02
bytes remote:            0.00e+00 0.00e+00 0.00e+00 0.00e+00 0.00e+00 0.00e+00
Max memory consumed for GA by this process: 239616 bytes

MA_summarize_allocated_blocks: starting scan ...
MA_summarize_allocated_blocks: scan completed: 0 heap blocks, 0 stack blocks
MA usage statistics:

	allocation statistics:
					      heap	     stack
					      ----	     -----
	current number of blocks	         0	         0
	maximum number of blocks	        18	        28
	current total bytes		         0	         0
	maximum total bytes		  12084288	  22510264
	maximum total K-bytes		     12085	     22511
	maximum total M-bytes		        13	        23


                                     CITATION
                                     --------
                Please cite the following reference when publishing
                           results obtained with NWChem:

          E. Aprà, E. J. Bylaska, W. A. de Jong, N. Govind, K. Kowalski,
       T. P. Straatsma, M. Valiev, H. J. J. van Dam, Y. Alexeev, J. Anchell,
       V. Anisimov, F. W. Aquino, R. Atta-Fynn, J. Autschbach, N. P. Bauman,
     J. C. Becca, D. E. Bernholdt, K. Bhaskaran-Nair, S. Bogatko, P. Borowski,
        J. Boschen, J. Brabec, A. Bruner, E. Cauët, Y. Chen, G. N. Chuev,
      C. J. Cramer, J. Daily, M. J. O. Deegan, T. H. Dunning Jr., M. Dupuis,
   K. G. Dyall, G. I. Fann, S. A. Fischer, A. Fonari, H. Früchtl, L. Gagliardi,
      J. Garza, N. Gawande, S. Ghosh, K. Glaesemann, A. W. Götz, J. Hammond,
       V. Helms, E. D. Hermes, K. Hirao, S. Hirata, M. Jacquelin, L. Jensen,
   B. G. Johnson, H. Jónsson, R. A. Kendall, M. Klemm, R. Kobayashi, V. Konkov,
      S. Krishnamoorthy, M. Krishnan, Z. Lin, R. D. Lins, R. J. Littlefield,
      A. J. Logsdail, K. Lopata, W. Ma, A. V. Marenich, J. Martin del Campo,
   D. Mejia-Rodriguez, J. E. Moore, J. M. Mullin, T. Nakajima, D. R. Nascimento,
    J. A. Nichols, P. J. Nichols, J. Nieplocha, A. Otero-de-la-Roza, B. Palmer,
    A. Panyala, T. Pirojsirikul, B. Peng, R. Peverati, J. Pittner, L. Pollack,
   R. M. Richard, P. Sadayappan, G. C. Schatz, W. A. Shelton, D. W. Silverstein,
   D. M. A. Smith, T. A. Soares, D. Song, M. Swart, H. L. Taylor, G. S. Thomas,
            V. Tipparaju, D. G. Truhlar, K. Tsemekhman, T. Van Voorhis,
     Á. Vázquez-Mayagoitia, P. Verma, O. Villa, A. Vishnu, K. D. Vogiatzis,
        D. Wang, J. H. Weare, M. J. Williamson, T. L. Windus, K. Woliński,
        A. T. Wong, Q. Wu, C. Yang, Q. Yu, M. Zacharias, Z. Zhang, Y. Zhao,
                                and R. J. Harrison
                        "NWChem: Past, present, and future
                         J. Chem. Phys. 152, 184102 (2020)
                               doi:10.1063/5.0004997

                                      AUTHORS
                                      -------
     E. Apra, E. J. Bylaska, N. Govind, K. Kowalski, M. Valiev, W. A. de Jong,
      T. P. Straatsma, H. J. J. van Dam, D. Wang, T. L. Windus, N. P. Bauman,
       A. Panyala, J. Hammond, J. Autschbach, K. Bhaskaran-Nair, J. Brabec,
    K. Lopata, S. A. Fischer, S. Krishnamoorthy, M. Jacquelin, W. Ma, M. Klemm,
       O. Villa, Y. Chen, V. Anisimov, F. Aquino, S. Hirata, M. T. Hackler,
           Eric Hermes, L. Jensen, J. E. Moore, J. C. Becca, V. Konjkov,
            D. Mejia-Rodriguez, T. Risthaus, M. Malagoli, A. Marenich,
   A. Otero-de-la-Roza, J. Mullin, P. Nichols, R. Peverati, J. Pittner, Y. Zhao,
        P.-D. Fan, A. Fonari, M. J. Williamson, R. J. Harrison, J. R. Rehr,
      M. Dupuis, D. Silverstein, D. M. A. Smith, J. Nieplocha, V. Tipparaju,
      M. Krishnan, B. E. Van Kuiken, A. Vazquez-Mayagoitia, M. Swart, Q. Wu,
   T. Van Voorhis, A. A. Auer, M. Nooijen, L. D. Crosby, E. Brown, G. Cisneros,
     G. I. Fann, H. Fruchtl, J. Garza, K. Hirao, R. A. Kendall, J. A. Nichols,
       K. Tsemekhman, K. Wolinski, J. Anchell, D. E. Bernholdt, P. Borowski,
       T. Clark, D. Clerc, H. Dachsel, M. J. O. Deegan, K. Dyall, D. Elwood,
      E. Glendening, M. Gutowski, A. C. Hess, J. Jaffe, B. G. Johnson, J. Ju,
        R. Kobayashi, R. Kutteh, Z. Lin, R. Littlefield, X. Long, B. Meng,
      T. Nakajima, S. Niu, L. Pollack, M. Rosing, K. Glaesemann, G. Sandrone,
      M. Stave, H. Taylor, G. Thomas, J. H. van Lenthe, A. T. Wong, Z. Zhang.

 Total times  cpu:        0.7s     wall:        0.8s
