 argument  1 = nwchem/input_3_2.nw



============================== echo of input deck ==============================
echo
memory 1000 mb
geometry noautosym noautoz
O 0.87715956 1.70409266 0.47858616
H 1.70199937 1.19722607 0.29220265
H 1.16181787 2.60891668 0.65546661
O -0.82054445 0.61636011 -1.6312343
H -0.26682713 1.17302621 -1.05309865
H -0.36885969 -0.24447946 -1.58195952
O 0.57630762 -1.69154092 -0.42866929
H 0.43417462 -2.64420081 -0.48595869
H 0.08911917 -1.3894609 0.38589939
end
basis spherical
 * library cc-pvdz
end
task scf gradient
================================================================================


                                         
                                         


             Northwest Computational Chemistry Package (NWChem) 7.0.2
             --------------------------------------------------------


                    Environmental Molecular Sciences Laboratory
                       Pacific Northwest National Laboratory
                                Richland, WA 99352

                              Copyright (c) 1994-2020
                       Pacific Northwest National Laboratory
                            Battelle Memorial Institute

             NWChem is an open-source computational chemistry package
                        distributed under the terms of the
                      Educational Community License (ECL) 2.0
             A copy of the license is included with this distribution
                              in the LICENSE.TXT file

                                  ACKNOWLEDGMENT
                                  --------------

            This software and its documentation were developed at the
            EMSL at Pacific Northwest National Laboratory, a multiprogram
            national laboratory, operated for the U.S. Department of Energy
            by Battelle under Contract Number DE-AC05-76RL01830. Support
            for this work was provided by the Department of Energy Office
            of Biological and Environmental Research, Office of Basic
            Energy Sciences, and the Office of Advanced Scientific Computing.


           Job information
           ---------------

    hostname        = pop-os
    program         = nwchem
    date            = Tue Jul  6 14:07:02 2021

    compiled        = Wed_Jan_06_19:48:08_2021
    source          = /build/nwchem-ksKH2r/nwchem-7.0.2
    nwchem branch   = 7.0.2
    nwchem revision = N/A
    ga revision     = 5.7.1
    use scalapack   = T
    input           = nwchem/input_3_2.nw
    prefix          = input_3_2.
    data base       = ./input_3_2.db
    status          = startup
    nproc           =        1
    time left       =     -1s



           Memory information
           ------------------

    heap     =   32767998 doubles =    250.0 Mbytes
    stack    =   32767995 doubles =    250.0 Mbytes
    global   =   65536000 doubles =    500.0 Mbytes (distinct from heap & stack)
    total    =  131071993 doubles =   1000.0 Mbytes
    verify   = yes
    hardfail = no 


           Directory information
           ---------------------

  0 permanent = .
  0 scratch   = .




                                NWChem Input Module
                                -------------------



 Scaling coordinates for geometry "geometry" by  1.889725989
 (inverse scale =  0.529177249)



                             Geometry "geometry" -> ""
                             -------------------------

 Output coordinates in angstroms (scale by  1.889725989 to convert to a.u.)

  No.       Tag          Charge          X              Y              Z
 ---- ---------------- ---------- -------------- -------------- --------------
    1 O                    8.0000     0.61666603     1.51301524     0.95985242
    2 H                    1.0000     1.44150584     1.00614865     0.77346891
    3 H                    1.0000     0.90132434     2.41783926     1.13673287
    4 O                    8.0000    -1.08103799     0.42528269    -1.14996805
    5 H                    1.0000    -0.52732067     0.98194879    -0.57183240
    6 H                    1.0000    -0.62935323    -0.43555688    -1.10069327
    7 O                    8.0000     0.31581409    -1.88261834     0.05259697
    8 H                    1.0000     0.17368109    -2.83527823    -0.00469243
    9 H                    1.0000    -0.17137437    -1.58053832     0.86716565

      Atomic Mass 
      ----------- 

      O                 15.994910
      H                  1.007825


 Effective nuclear repulsion energy (a.u.)      78.2172046106

            Nuclear Dipole moment (a.u.) 
            ----------------------------
        X                 Y               Z
 ---------------- ---------------- ----------------
     0.0000000000    -0.0000000000     0.0000000000


            XYZ format geometry
            -------------------
     9
 geometry
 O                     0.61666603     1.51301524     0.95985242
 H                     1.44150584     1.00614865     0.77346891
 H                     0.90132434     2.41783926     1.13673287
 O                    -1.08103799     0.42528269    -1.14996805
 H                    -0.52732067     0.98194879    -0.57183240
 H                    -0.62935323    -0.43555688    -1.10069327
 O                     0.31581409    -1.88261834     0.05259697
 H                     0.17368109    -2.83527823    -0.00469243
 H                    -0.17137437    -1.58053832     0.86716565

 ==============================================================================
                                internuclear distances
 ------------------------------------------------------------------------------
       center one      |      center two      | atomic units |  angstroms
 ------------------------------------------------------------------------------
    2 H                |   1 O                |     1.86309  |     0.98591
    3 H                |   1 O                |     1.82339  |     0.96490
    5 H                |   4 O                |     1.84258  |     0.97505
    6 H                |   4 O                |     1.83944  |     0.97339
    8 H                |   7 O                |     1.82341  |     0.96491
    9 H                |   7 O                |     1.88227  |     0.99606
 ------------------------------------------------------------------------------
                         number of included internuclear distances:          6
 ==============================================================================



 ==============================================================================
                                 internuclear angles
 ------------------------------------------------------------------------------
        center 1       |       center 2       |       center 3       |  degrees
 ------------------------------------------------------------------------------
    2 H                |   1 O                |   3 H                |   105.66
    5 H                |   4 O                |   6 H                |   102.20
    8 H                |   7 O                |   9 H                |   106.02
 ------------------------------------------------------------------------------
                            number of included internuclear angles:          3
 ==============================================================================





 Summary of "ao basis" -> "" (spherical)
 ------------------------------------------------------------------------------
       Tag                 Description            Shells   Functions and Types
 ---------------- ------------------------------  ------  ---------------------
 *                          cc-pvdz                   on all atoms 


                      Basis "ao basis" -> "ao basis" (spherical)
                      -----
  O (Oxygen)
  ----------
            Exponent  Coefficients 
       -------------- ---------------------------------------------------------
  1 S  1.17200000E+04  0.000710
  1 S  1.75900000E+03  0.005470
  1 S  4.00800000E+02  0.027837
  1 S  1.13700000E+02  0.104800
  1 S  3.70300000E+01  0.283062
  1 S  1.32700000E+01  0.448719
  1 S  5.02500000E+00  0.270952
  1 S  1.01300000E+00  0.015458

  2 S  1.17200000E+04 -0.000160
  2 S  1.75900000E+03 -0.001263
  2 S  4.00800000E+02 -0.006267
  2 S  1.13700000E+02 -0.025716
  2 S  3.70300000E+01 -0.070924
  2 S  1.32700000E+01 -0.165411
  2 S  5.02500000E+00 -0.116955
  2 S  1.01300000E+00  0.557368

  3 S  3.02300000E-01  1.000000

  4 P  1.77000000E+01  0.043018
  4 P  3.85400000E+00  0.228913
  4 P  1.04600000E+00  0.508728

  5 P  2.75300000E-01  1.000000

  6 D  1.18500000E+00  1.000000

  H (Hydrogen)
  ------------
            Exponent  Coefficients 
       -------------- ---------------------------------------------------------
  1 S  1.30100000E+01  0.019685
  1 S  1.96200000E+00  0.137977
  1 S  4.44600000E-01  0.478148

  2 S  1.22000000E-01  1.000000

  3 P  7.27000000E-01  1.000000



 Summary of "ao basis" -> "ao basis" (spherical)
 ------------------------------------------------------------------------------
       Tag                 Description            Shells   Functions and Types
 ---------------- ------------------------------  ------  ---------------------
 O                          cc-pvdz                  6       14   3s2p1d
 H                          cc-pvdz                  3        5   2s1p


                                 NWChem SCF Module
                                 -----------------



  ao basis        = "ao basis"
  functions       =    72
  atoms           =     9
  closed shells   =    15
  open shells     =     0
  charge          =   0.00
  wavefunction    = RHF 
  input vectors   = atomic
  output vectors  = ./input_3_2.movecs
  use symmetry    = F
  symmetry adapt  = F


 Summary of "ao basis" -> "ao basis" (spherical)
 ------------------------------------------------------------------------------
       Tag                 Description            Shells   Functions and Types
 ---------------- ------------------------------  ------  ---------------------
 O                          cc-pvdz                  6       14   3s2p1d
 H                          cc-pvdz                  3        5   2s1p



 Forming initial guess at       0.1s


      Superposition of Atomic Density Guess
      -------------------------------------

 Sum of atomic energies:        -227.28668731

      Non-variational initial energy
      ------------------------------

 Total energy =    -227.734071
 1-e energy   =    -466.790770
 2-e energy   =     160.839495
 HOMO         =      -0.459145
 LUMO         =       0.049084


 Starting SCF solution at       0.3s



 ----------------------------------------------
         Quadratically convergent ROHF

 Convergence threshold     :          1.000E-04
 Maximum no. of iterations :           30
 Final Fock-matrix accuracy:          1.000E-07
 ----------------------------------------------


 Integral file          = ./input_3_2.aoints.0
 Record size in doubles =  65536        No. of integs per rec  =  43688
 Max. records in memory =    110        Max. records in file   = 400688
 No. of bits per label  =      8        No. of bits per value  =     64


 #quartets = 1.712D+05 #integrals = 2.194D+06 #direct =  0.0% #cached =100.0%


              iter       energy          gnorm     gmax       time
             ----- ------------------- --------- --------- --------
                 1     -227.9977038662  1.35D+00  3.03D-01      0.8
                 2     -228.0839727275  2.95D-01  7.18D-02      0.9
                 3     -228.0909107772  2.51D-02  4.66D-03      1.0
                 4     -228.0909651077  4.47D-04  8.94D-05      1.2
                 5     -228.0909651215  8.52D-06  2.14D-06      1.3


       Final RHF  results 
       ------------------ 

         Total SCF energy =   -228.090965121535
      One-electron energy =   -470.882248712652
      Two-electron energy =    164.574078980485
 Nuclear repulsion energy =     78.217204610632

        Time for solution =      1.0s


             Final eigenvalues
             -----------------

              1      
    1  -20.5810
    2  -20.5773
    3  -20.4956
    4   -1.3552
    5   -1.3479
    6   -1.2764
    7   -0.7201
    8   -0.7116
    9   -0.6454
   10   -0.5925
   11   -0.5809
   12   -0.5347
   13   -0.5124
   14   -0.4962
   15   -0.4398
   16    0.1527
   17    0.1877
   18    0.2454
   19    0.2510
   20    0.3117
   21    0.3884
   22    0.7286
   23    0.7590
   24    0.8208
   25    0.8254

                       ROHF Final Molecular Orbital Analysis
                       -------------------------------------

 Vector    4  Occ=2.000000D+00  E=-1.355207D+00
              MO Center=  7.5D-01,  1.5D+00,  9.4D-01, r^2= 6.9D-01
   Bfn.  Coefficient  Atom+Function         Bfn.  Coefficient  Atom+Function  
  ----- ------------  ---------------      ----- ------------  ---------------
     2      0.442072  1 O  s                  3      0.389167  1 O  s          
    20      0.187405  3 H  s                 15      0.176384  2 H  s          

 Vector    5  Occ=2.000000D+00  E=-1.347921D+00
              MO Center=  2.4D-01, -1.9D+00,  1.5D-01, r^2= 7.0D-01
   Bfn.  Coefficient  Atom+Function         Bfn.  Coefficient  Atom+Function  
  ----- ------------  ---------------      ----- ------------  ---------------
    50      0.442653  7 O  s                 51      0.392968  7 O  s          
    63      0.188259  8 H  s                 68      0.171927  9 H  s          

 Vector    6  Occ=2.000000D+00  E=-1.276422D+00
              MO Center= -9.3D-01,  3.8D-01, -1.1D+00, r^2= 5.8D-01
   Bfn.  Coefficient  Atom+Function         Bfn.  Coefficient  Atom+Function  
  ----- ------------  ---------------      ----- ------------  ---------------
    26      0.440485  4 O  s                 27      0.389587  4 O  s          
    44      0.185509  6 H  s                 39      0.183937  5 H  s          

 Vector    7  Occ=2.000000D+00  E=-7.200614D-01
              MO Center=  7.2D-01,  1.0D+00,  8.3D-01, r^2= 2.6D+00
   Bfn.  Coefficient  Atom+Function         Bfn.  Coefficient  Atom+Function  
  ----- ------------  ---------------      ----- ------------  ---------------
     5      0.415650  1 O  py                20      0.302421  3 H  s          
    15     -0.284413  2 H  s                  8      0.196405  1 O  py         
    53     -0.162470  7 O  py         

 Vector    8  Occ=2.000000D+00  E=-7.116386D-01
              MO Center=  2.9D-01, -1.4D+00,  3.0D-01, r^2= 2.6D+00
   Bfn.  Coefficient  Atom+Function         Bfn.  Coefficient  Atom+Function  
  ----- ------------  ---------------      ----- ------------  ---------------
    53      0.375909  7 O  py                63     -0.304258  8 H  s          
    68      0.283422  9 H  s                 54      0.229174  7 O  pz         
     5      0.178252  1 O  py                56      0.177628  7 O  py         

 Vector    9  Occ=2.000000D+00  E=-6.453557D-01
              MO Center= -6.6D-01,  4.0D-01, -7.5D-01, r^2= 1.8D+00
   Bfn.  Coefficient  Atom+Function         Bfn.  Coefficient  Atom+Function  
  ----- ------------  ---------------      ----- ------------  ---------------
    29      0.408544  4 O  py                39      0.294805  5 H  s          
    44     -0.285796  6 H  s                 32      0.190247  4 O  py         
     4     -0.170701  1 O  px                30      0.160305  4 O  pz         

 Vector   10  Occ=2.000000D+00  E=-5.924922D-01
              MO Center=  3.4D-01,  2.1D-01,  4.3D-01, r^2= 3.7D+00
   Bfn.  Coefficient  Atom+Function         Bfn.  Coefficient  Atom+Function  
  ----- ------------  ---------------      ----- ------------  ---------------
     4      0.389488  1 O  px                 7      0.260823  1 O  px         
    54      0.245729  7 O  pz                 3     -0.243265  1 O  s          
    51     -0.179678  7 O  s                 57      0.167321  7 O  pz         
    15      0.165949  2 H  s                 53     -0.165273  7 O  py         

 Vector   11  Occ=2.000000D+00  E=-5.808630D-01
              MO Center=  2.9D-01, -6.1D-01,  2.3D-01, r^2= 3.6D+00
   Bfn.  Coefficient  Atom+Function         Bfn.  Coefficient  Atom+Function  
  ----- ------------  ---------------      ----- ------------  ---------------
     4      0.275044  1 O  px                51      0.268628  7 O  s          
    52      0.256294  7 O  px                54     -0.243013  7 O  pz         
    53      0.232084  7 O  py                 3     -0.202521  1 O  s          
     7      0.177733  1 O  px                55      0.177421  7 O  px         
    57     -0.157317  7 O  pz                63     -0.156527  8 H  s          

 Vector   12  Occ=2.000000D+00  E=-5.346797D-01
              MO Center= -7.1D-02,  3.0D-01, -1.3D-02, r^2= 3.9D+00
   Bfn.  Coefficient  Atom+Function         Bfn.  Coefficient  Atom+Function  
  ----- ------------  ---------------      ----- ------------  ---------------
     6      0.363489  1 O  pz                 9      0.290018  1 O  pz         
    52      0.280189  7 O  px                28     -0.256409  4 O  px         
    55      0.218206  7 O  px                27      0.214360  4 O  s          
    31     -0.175401  4 O  px                30     -0.162002  4 O  pz         

 Vector   13  Occ=2.000000D+00  E=-5.124162D-01
              MO Center=  3.7D-01, -2.9D-01,  3.7D-01, r^2= 3.8D+00
   Bfn.  Coefficient  Atom+Function         Bfn.  Coefficient  Atom+Function  
  ----- ------------  ---------------      ----- ------------  ---------------
     6      0.403457  1 O  pz                52     -0.367849  7 O  px         
     9      0.313713  1 O  pz                55     -0.288551  7 O  px         
    54     -0.252969  7 O  pz                57     -0.198063  7 O  pz         

 Vector   14  Occ=2.000000D+00  E=-4.962261D-01
              MO Center= -4.5D-01,  5.2D-02, -4.7D-01, r^2= 3.4D+00
   Bfn.  Coefficient  Atom+Function         Bfn.  Coefficient  Atom+Function  
  ----- ------------  ---------------      ----- ------------  ---------------
    28      0.363940  4 O  px                 6      0.267302  1 O  pz         
    31      0.258284  4 O  px                52      0.238491  7 O  px         
     9      0.202746  1 O  pz                54      0.198392  7 O  pz         
    30      0.196747  4 O  pz                27     -0.192930  4 O  s          
    55      0.188546  7 O  px                44      0.151769  6 H  s          

 Vector   15  Occ=2.000000D+00  E=-4.398021D-01
              MO Center= -1.1D+00,  4.1D-01, -1.1D+00, r^2= 6.6D-01
   Bfn.  Coefficient  Atom+Function         Bfn.  Coefficient  Atom+Function  
  ----- ------------  ---------------      ----- ------------  ---------------
    30      0.495968  4 O  pz                33      0.398337  4 O  pz         
    28     -0.342491  4 O  px                31     -0.274326  4 O  px         
    29     -0.161674  4 O  py         

 Vector   16  Occ=0.000000D+00  E= 1.526795D-01
              MO Center=  6.3D-01, -8.1D-02,  6.7D-01, r^2= 6.8D+00
   Bfn.  Coefficient  Atom+Function         Bfn.  Coefficient  Atom+Function  
  ----- ------------  ---------------      ----- ------------  ---------------
     3      0.698570  1 O  s                 51      0.629429  7 O  s          
    16     -0.596685  2 H  s                 21     -0.516374  3 H  s          
    69     -0.500733  9 H  s                 64     -0.490243  8 H  s          
     7      0.212893  1 O  px         

 Vector   17  Occ=0.000000D+00  E= 1.877268D-01
              MO Center=  5.2D-01, -4.0D-01,  6.1D-01, r^2= 9.5D+00
   Bfn.  Coefficient  Atom+Function         Bfn.  Coefficient  Atom+Function  
  ----- ------------  ---------------      ----- ------------  ---------------
    64     -0.834134  8 H  s                 21      0.788917  3 H  s          
    51      0.702588  7 O  s                  3     -0.648594  1 O  s          
    69     -0.349253  9 H  s                 16      0.309713  2 H  s          
    56     -0.214004  7 O  py                 7     -0.172129  1 O  px         
     8     -0.168114  1 O  py         

 Vector   18  Occ=0.000000D+00  E= 2.453824D-01
              MO Center=  1.0D+00,  7.2D-01,  8.0D-01, r^2= 7.3D+00
   Bfn.  Coefficient  Atom+Function         Bfn.  Coefficient  Atom+Function  
  ----- ------------  ---------------      ----- ------------  ---------------
    21     -1.214879  3 H  s                 16      1.204019  2 H  s          
    64     -0.743778  8 H  s                  8      0.524481  1 O  py         
    69      0.514627  9 H  s                 56     -0.263147  7 O  py         
     5      0.236970  1 O  py                 7     -0.206749  1 O  px         

 Vector   19  Occ=0.000000D+00  E= 2.510376D-01
              MO Center=  2.2D-01, -1.2D+00,  7.6D-01, r^2= 5.6D+00
   Bfn.  Coefficient  Atom+Function         Bfn.  Coefficient  Atom+Function  
  ----- ------------  ---------------      ----- ------------  ---------------
    69      1.402471  9 H  s                 64     -1.026631  8 H  s          
    16     -0.841154  2 H  s                 21      0.472941  3 H  s          
    56     -0.413048  7 O  py                57     -0.392529  7 O  pz         
     8     -0.263159  1 O  py                45     -0.189446  6 H  s          
     7      0.188040  1 O  px                54     -0.182942  7 O  pz         

 Vector   20  Occ=0.000000D+00  E= 3.117378D-01
              MO Center= -4.5D-01, -3.3D-02, -8.5D-01, r^2= 4.0D+00
   Bfn.  Coefficient  Atom+Function         Bfn.  Coefficient  Atom+Function  
  ----- ------------  ---------------      ----- ------------  ---------------
    45     -1.127060  6 H  s                 27      1.083417  4 O  s          
    40     -0.729385  5 H  s                 31      0.294821  4 O  px         
    64      0.282978  8 H  s                 16      0.261006  2 H  s          
    69      0.261360  9 H  s                 21      0.192403  3 H  s          
    56      0.179906  7 O  py                32     -0.171913  4 O  py         

 Vector   21  Occ=0.000000D+00  E= 3.883647D-01
              MO Center= -5.0D-01,  5.2D-01, -7.8D-01, r^2= 4.2D+00
   Bfn.  Coefficient  Atom+Function         Bfn.  Coefficient  Atom+Function  
  ----- ------------  ---------------      ----- ------------  ---------------
    40      1.837226  5 H  s                 45     -1.551203  6 H  s          
    32     -0.650771  4 O  py                21     -0.284769  3 H  s          
    29     -0.279038  4 O  py                33     -0.273149  4 O  pz         
    64      0.228798  8 H  s                 56      0.202275  7 O  py         
     7      0.197811  1 O  px                 9      0.189559  1 O  pz         

 Vector   22  Occ=0.000000D+00  E= 7.286277D-01
              MO Center=  5.5D-01, -9.5D-03,  6.6D-01, r^2= 4.7D+00
   Bfn.  Coefficient  Atom+Function         Bfn.  Coefficient  Atom+Function  
  ----- ------------  ---------------      ----- ------------  ---------------
    15      0.739091  2 H  s                 68      0.691570  9 H  s          
    20     -0.650200  3 H  s                 63     -0.546191  8 H  s          
    16     -0.467568  2 H  s                 69     -0.440234  9 H  s          
    21      0.395416  3 H  s                  8      0.373075  1 O  py         
    64      0.332510  8 H  s                 56     -0.292332  7 O  py         

 Vector   23  Occ=0.000000D+00  E= 7.590064D-01
              MO Center= -2.3D-01, -6.4D-02, -3.3D-01, r^2= 4.6D+00
   Bfn.  Coefficient  Atom+Function         Bfn.  Coefficient  Atom+Function  
  ----- ------------  ---------------      ----- ------------  ---------------
    39      0.686299  5 H  s                 44     -0.636465  6 H  s          
    40     -0.622710  5 H  s                 45      0.617557  6 H  s          
    63     -0.545029  8 H  s                 68      0.452043  9 H  s          
    20      0.422702  3 H  s                 69     -0.399828  9 H  s          
    15     -0.378574  2 H  s                 64      0.362865  8 H  s          

 Vector   24  Occ=0.000000D+00  E= 8.208478D-01
              MO Center=  4.0D-01, -9.4D-01,  6.3D-01, r^2= 5.2D+00
   Bfn.  Coefficient  Atom+Function         Bfn.  Coefficient  Atom+Function  
  ----- ------------  ---------------      ----- ------------  ---------------
    68      0.726277  9 H  s                 63      0.677005  8 H  s          
    69     -0.601953  9 H  s                 15     -0.578893  2 H  s          
    16      0.486054  2 H  s                 20     -0.418570  3 H  s          
    64     -0.416814  8 H  s                 45      0.260526  6 H  s          
    21      0.238267  3 H  s                 50     -0.233893  7 O  s          

 Vector   25  Occ=0.000000D+00  E= 8.253987D-01
              MO Center=  7.9D-01,  5.4D-01,  8.2D-01, r^2= 5.9D+00
   Bfn.  Coefficient  Atom+Function         Bfn.  Coefficient  Atom+Function  
  ----- ------------  ---------------      ----- ------------  ---------------
    20      0.785075  3 H  s                 15      0.564941  2 H  s          
    21     -0.561275  3 H  s                 63      0.519775  8 H  s          
    68      0.396949  9 H  s                 16     -0.393276  2 H  s          
    64     -0.356176  8 H  s                 69     -0.281013  9 H  s          
    23      0.237514  3 H  py                 3      0.235711  1 O  s          


 center of mass
 --------------
 x =  -0.04121409 y =   0.01544707 z =  -0.03815151

 moments of inertia (a.u.)
 ------------------
         553.563903404920          -4.495683651819        -116.421534331452
          -4.495683651819         250.407169643995         -56.905518301505
        -116.421534331452         -56.905518301505         517.397848565194

  Mulliken analysis of the total density
  --------------------------------------

    Atom       Charge   Shell Charges
 -----------   ------   -------------------------------------------------------
    1 O    8     8.32   2.00  0.83  0.84  2.81  1.82  0.01
    2 H    1     0.82   0.66  0.08  0.08
    3 H    1     0.83   0.68  0.07  0.08
    4 O    8     8.39   2.00  0.83  0.84  2.82  1.89  0.01
    5 H    1     0.83   0.66  0.09  0.09
    6 H    1     0.84   0.66  0.09  0.09
    7 O    8     8.34   2.00  0.83  0.85  2.81  1.83  0.01
    8 H    1     0.83   0.68  0.07  0.08
    9 H    1     0.81   0.65  0.08  0.08

       Multipole analysis of the density wrt the origin
       ------------------------------------------------

     L   x y z        total         open         nuclear
     -   - - -        -----         ----         -------
     0   0 0 0     -0.000000      0.000000     30.000000

     1   1 0 0      1.174817      0.000000      0.000000
     1   0 1 0     -0.419678      0.000000     -0.000000
     1   0 0 1      1.131572      0.000000      0.000000

     2   2 0 0    -14.850654      0.000000     60.041307
     2   1 1 0      4.517925      0.000000      7.835419
     2   1 0 1     -1.211641      0.000000     63.557056
     2   0 2 0     -4.815757      0.000000    238.060636
     2   0 1 1      1.209158      0.000000     32.142439
     2   0 0 2    -15.876043      0.000000     79.109819


 Parallel integral file used      51 records with       0 large values

                              NWChem Gradients Module
                              -----------------------



  wavefunction    =   RHF     



                         RHF ENERGY GRADIENTS

    atom               coordinates                        gradient
                 x          y          z           x          y          z
   1 O       1.165330   2.859184   1.813858   -0.037634   0.003206   0.002716
   2 H       2.724051   1.901345   1.461644    0.031145  -0.021956  -0.007775
   3 H       1.703256   4.569054   2.148114    0.003821   0.019117   0.003965
   4 O      -2.042866   0.803668  -2.173125   -0.028221   0.008080  -0.014914
   5 H      -0.996492   1.855614  -1.080607    0.018479   0.015142   0.015116
   6 H      -1.189305  -0.823083  -2.080009    0.013107  -0.023318   0.001811
   7 O       0.596802  -3.557633   0.099394    0.021950   0.002503  -0.036353
   8 H       0.328210  -5.357899  -0.008867   -0.001076  -0.019960  -0.003706
   9 H      -0.323851  -2.986784   1.638705   -0.021573   0.017187   0.039140

                 ----------------------------------------
                 |  Time  |  1-e(secs)   |  2-e(secs)   |
                 ----------------------------------------
                 |  CPU   |       0.01   |       0.72   |
                 ----------------------------------------
                 |  WALL  |       0.01   |       0.72   |
                 ----------------------------------------

 Task  times  cpu:        2.0s     wall:        2.1s


                                NWChem Input Module
                                -------------------


 Summary of allocated global arrays
-----------------------------------
  No active global arrays



                         GA Statistics for process    0
                         ------------------------------

       create   destroy   get      put      acc     scatter   gather  read&inc
calls:  249      249     8485     3834     3497        0        0      141     
number of processes/call 0.00e+00 0.00e+00 0.00e+00 0.00e+00 0.00e+00
bytes total:             1.41e+07 8.42e+06 2.03e+06 0.00e+00 0.00e+00 1.13e+03
bytes remote:            0.00e+00 0.00e+00 0.00e+00 0.00e+00 0.00e+00 0.00e+00
Max memory consumed for GA by this process: 539136 bytes

MA_summarize_allocated_blocks: starting scan ...
MA_summarize_allocated_blocks: scan completed: 0 heap blocks, 0 stack blocks
MA usage statistics:

	allocation statistics:
					      heap	     stack
					      ----	     -----
	current number of blocks	         0	         0
	maximum number of blocks	        18	        28
	current total bytes		         0	         0
	maximum total bytes		  57703096	  26171384
	maximum total K-bytes		     57704	     26172
	maximum total M-bytes		        58	        27


                                     CITATION
                                     --------
                Please cite the following reference when publishing
                           results obtained with NWChem:

          E. Aprà, E. J. Bylaska, W. A. de Jong, N. Govind, K. Kowalski,
       T. P. Straatsma, M. Valiev, H. J. J. van Dam, Y. Alexeev, J. Anchell,
       V. Anisimov, F. W. Aquino, R. Atta-Fynn, J. Autschbach, N. P. Bauman,
     J. C. Becca, D. E. Bernholdt, K. Bhaskaran-Nair, S. Bogatko, P. Borowski,
        J. Boschen, J. Brabec, A. Bruner, E. Cauët, Y. Chen, G. N. Chuev,
      C. J. Cramer, J. Daily, M. J. O. Deegan, T. H. Dunning Jr., M. Dupuis,
   K. G. Dyall, G. I. Fann, S. A. Fischer, A. Fonari, H. Früchtl, L. Gagliardi,
      J. Garza, N. Gawande, S. Ghosh, K. Glaesemann, A. W. Götz, J. Hammond,
       V. Helms, E. D. Hermes, K. Hirao, S. Hirata, M. Jacquelin, L. Jensen,
   B. G. Johnson, H. Jónsson, R. A. Kendall, M. Klemm, R. Kobayashi, V. Konkov,
      S. Krishnamoorthy, M. Krishnan, Z. Lin, R. D. Lins, R. J. Littlefield,
      A. J. Logsdail, K. Lopata, W. Ma, A. V. Marenich, J. Martin del Campo,
   D. Mejia-Rodriguez, J. E. Moore, J. M. Mullin, T. Nakajima, D. R. Nascimento,
    J. A. Nichols, P. J. Nichols, J. Nieplocha, A. Otero-de-la-Roza, B. Palmer,
    A. Panyala, T. Pirojsirikul, B. Peng, R. Peverati, J. Pittner, L. Pollack,
   R. M. Richard, P. Sadayappan, G. C. Schatz, W. A. Shelton, D. W. Silverstein,
   D. M. A. Smith, T. A. Soares, D. Song, M. Swart, H. L. Taylor, G. S. Thomas,
            V. Tipparaju, D. G. Truhlar, K. Tsemekhman, T. Van Voorhis,
     Á. Vázquez-Mayagoitia, P. Verma, O. Villa, A. Vishnu, K. D. Vogiatzis,
        D. Wang, J. H. Weare, M. J. Williamson, T. L. Windus, K. Woliński,
        A. T. Wong, Q. Wu, C. Yang, Q. Yu, M. Zacharias, Z. Zhang, Y. Zhao,
                                and R. J. Harrison
                        "NWChem: Past, present, and future
                         J. Chem. Phys. 152, 184102 (2020)
                               doi:10.1063/5.0004997

                                      AUTHORS
                                      -------
     E. Apra, E. J. Bylaska, N. Govind, K. Kowalski, M. Valiev, W. A. de Jong,
      T. P. Straatsma, H. J. J. van Dam, D. Wang, T. L. Windus, N. P. Bauman,
       A. Panyala, J. Hammond, J. Autschbach, K. Bhaskaran-Nair, J. Brabec,
    K. Lopata, S. A. Fischer, S. Krishnamoorthy, M. Jacquelin, W. Ma, M. Klemm,
       O. Villa, Y. Chen, V. Anisimov, F. Aquino, S. Hirata, M. T. Hackler,
           Eric Hermes, L. Jensen, J. E. Moore, J. C. Becca, V. Konjkov,
            D. Mejia-Rodriguez, T. Risthaus, M. Malagoli, A. Marenich,
   A. Otero-de-la-Roza, J. Mullin, P. Nichols, R. Peverati, J. Pittner, Y. Zhao,
        P.-D. Fan, A. Fonari, M. J. Williamson, R. J. Harrison, J. R. Rehr,
      M. Dupuis, D. Silverstein, D. M. A. Smith, J. Nieplocha, V. Tipparaju,
      M. Krishnan, B. E. Van Kuiken, A. Vazquez-Mayagoitia, M. Swart, Q. Wu,
   T. Van Voorhis, A. A. Auer, M. Nooijen, L. D. Crosby, E. Brown, G. Cisneros,
     G. I. Fann, H. Fruchtl, J. Garza, K. Hirao, R. A. Kendall, J. A. Nichols,
       K. Tsemekhman, K. Wolinski, J. Anchell, D. E. Bernholdt, P. Borowski,
       T. Clark, D. Clerc, H. Dachsel, M. J. O. Deegan, K. Dyall, D. Elwood,
      E. Glendening, M. Gutowski, A. C. Hess, J. Jaffe, B. G. Johnson, J. Ju,
        R. Kobayashi, R. Kutteh, Z. Lin, R. Littlefield, X. Long, B. Meng,
      T. Nakajima, S. Niu, L. Pollack, M. Rosing, K. Glaesemann, G. Sandrone,
      M. Stave, H. Taylor, G. Thomas, J. H. van Lenthe, A. T. Wong, Z. Zhang.

 Total times  cpu:        2.0s     wall:        2.1s
