 argument  1 = nwchem/input_3_3_at_worker_3.nw



============================== echo of input deck ==============================
echo
memory 1000 mb
geometry noautosym noautoz
O 0.87715956 1.70409266 0.47858616
H 1.70199937 1.19722607 0.29220265
H 1.16181787 2.60891668 0.65546661
O -0.82054445 0.61636011 -1.6312343
H -0.26682713 1.17302621 -1.05309865
H -0.36885969 -0.24447946 -1.58195952
O 2.81159896 -0.10395953 -0.18689424
H 3.46294039 -0.4517338 0.43482057
H 2.1584952 -0.82915775 -0.30211113
end
basis spherical
 * library cc-pvdz
end
task scf gradient
================================================================================


                                         
                                         


             Northwest Computational Chemistry Package (NWChem) 7.0.2
             --------------------------------------------------------


                    Environmental Molecular Sciences Laboratory
                       Pacific Northwest National Laboratory
                                Richland, WA 99352

                              Copyright (c) 1994-2020
                       Pacific Northwest National Laboratory
                            Battelle Memorial Institute

             NWChem is an open-source computational chemistry package
                        distributed under the terms of the
                      Educational Community License (ECL) 2.0
             A copy of the license is included with this distribution
                              in the LICENSE.TXT file

                                  ACKNOWLEDGMENT
                                  --------------

            This software and its documentation were developed at the
            EMSL at Pacific Northwest National Laboratory, a multiprogram
            national laboratory, operated for the U.S. Department of Energy
            by Battelle under Contract Number DE-AC05-76RL01830. Support
            for this work was provided by the Department of Energy Office
            of Biological and Environmental Research, Office of Basic
            Energy Sciences, and the Office of Advanced Scientific Computing.


           Job information
           ---------------

    hostname        = pop-os
    program         = nwchem
    date            = Thu Jul  8 18:22:19 2021

    compiled        = Wed_Jan_06_19:48:08_2021
    source          = /build/nwchem-ksKH2r/nwchem-7.0.2
    nwchem branch   = 7.0.2
    nwchem revision = N/A
    ga revision     = 5.7.1
    use scalapack   = T
    input           = nwchem/input_3_3_at_worker_3.nw
    prefix          = input_3_3_at_worker_3.
    data base       = ./input_3_3_at_worker_3.db
    status          = startup
    nproc           =        1
    time left       =     -1s



           Memory information
           ------------------

    heap     =   32767998 doubles =    250.0 Mbytes
    stack    =   32767995 doubles =    250.0 Mbytes
    global   =   65536000 doubles =    500.0 Mbytes (distinct from heap & stack)
    total    =  131071993 doubles =   1000.0 Mbytes
    verify   = yes
    hardfail = no 


           Directory information
           ---------------------

  0 permanent = .
  0 scratch   = .




                                NWChem Input Module
                                -------------------



 Scaling coordinates for geometry "geometry" by  1.889725989
 (inverse scale =  0.529177249)



                             Geometry "geometry" -> ""
                             -------------------------

 Output coordinates in angstroms (scale by  1.889725989 to convert to a.u.)

  No.       Tag          Charge          X              Y              Z
 ---- ---------------- ---------- -------------- -------------- --------------
    1 O                    8.0000    -0.14934973     0.99790120     0.88762011
    2 H                    1.0000     0.67549008     0.49103461     0.70123660
    3 H                    1.0000     0.13530858     1.90272522     1.06450056
    4 O                    8.0000    -1.84705374    -0.08983135    -1.22220035
    5 H                    1.0000    -1.29333642     0.46683475    -0.64406470
    6 H                    1.0000    -1.39536898    -0.95067092    -1.17292557
    7 O                    8.0000     1.78508967    -0.81015099     0.22213971
    8 H                    1.0000     2.43643110    -1.15792526     0.84385452
    9 H                    1.0000     1.13198591    -1.53534921     0.10692282

      Atomic Mass 
      ----------- 

      O                 15.994910
      H                  1.007825


 Effective nuclear repulsion energy (a.u.)      78.5399091865

            Nuclear Dipole moment (a.u.) 
            ----------------------------
        X                 Y               Z
 ---------------- ---------------- ----------------
     0.0000000000    -0.0000000000     0.0000000000


            XYZ format geometry
            -------------------
     9
 geometry
 O                    -0.14934973     0.99790120     0.88762011
 H                     0.67549008     0.49103461     0.70123660
 H                     0.13530858     1.90272522     1.06450056
 O                    -1.84705374    -0.08983135    -1.22220035
 H                    -1.29333642     0.46683475    -0.64406470
 H                    -1.39536898    -0.95067092    -1.17292557
 O                     1.78508967    -0.81015099     0.22213971
 H                     2.43643110    -1.15792526     0.84385452
 H                     1.13198591    -1.53534921     0.10692282

 ==============================================================================
                                internuclear distances
 ------------------------------------------------------------------------------
       center one      |      center two      | atomic units |  angstroms
 ------------------------------------------------------------------------------
    2 H                |   1 O                |     1.86309  |     0.98591
    3 H                |   1 O                |     1.82339  |     0.96490
    5 H                |   4 O                |     1.84258  |     0.97505
    6 H                |   4 O                |     1.83944  |     0.97339
    8 H                |   7 O                |     1.82407  |     0.96526
    9 H                |   7 O                |     1.85707  |     0.98272
 ------------------------------------------------------------------------------
                         number of included internuclear distances:          6
 ==============================================================================



 ==============================================================================
                                 internuclear angles
 ------------------------------------------------------------------------------
        center 1       |       center 2       |       center 3       |  degrees
 ------------------------------------------------------------------------------
    2 H                |   1 O                |   3 H                |   105.66
    5 H                |   4 O                |   6 H                |   102.20
    8 H                |   7 O                |   9 H                |   104.96
 ------------------------------------------------------------------------------
                            number of included internuclear angles:          3
 ==============================================================================





 Summary of "ao basis" -> "" (spherical)
 ------------------------------------------------------------------------------
       Tag                 Description            Shells   Functions and Types
 ---------------- ------------------------------  ------  ---------------------
 *                          cc-pvdz                   on all atoms 


                      Basis "ao basis" -> "ao basis" (spherical)
                      -----
  O (Oxygen)
  ----------
            Exponent  Coefficients 
       -------------- ---------------------------------------------------------
  1 S  1.17200000E+04  0.000710
  1 S  1.75900000E+03  0.005470
  1 S  4.00800000E+02  0.027837
  1 S  1.13700000E+02  0.104800
  1 S  3.70300000E+01  0.283062
  1 S  1.32700000E+01  0.448719
  1 S  5.02500000E+00  0.270952
  1 S  1.01300000E+00  0.015458

  2 S  1.17200000E+04 -0.000160
  2 S  1.75900000E+03 -0.001263
  2 S  4.00800000E+02 -0.006267
  2 S  1.13700000E+02 -0.025716
  2 S  3.70300000E+01 -0.070924
  2 S  1.32700000E+01 -0.165411
  2 S  5.02500000E+00 -0.116955
  2 S  1.01300000E+00  0.557368

  3 S  3.02300000E-01  1.000000

  4 P  1.77000000E+01  0.043018
  4 P  3.85400000E+00  0.228913
  4 P  1.04600000E+00  0.508728

  5 P  2.75300000E-01  1.000000

  6 D  1.18500000E+00  1.000000

  H (Hydrogen)
  ------------
            Exponent  Coefficients 
       -------------- ---------------------------------------------------------
  1 S  1.30100000E+01  0.019685
  1 S  1.96200000E+00  0.137977
  1 S  4.44600000E-01  0.478148

  2 S  1.22000000E-01  1.000000

  3 P  7.27000000E-01  1.000000



 Summary of "ao basis" -> "ao basis" (spherical)
 ------------------------------------------------------------------------------
       Tag                 Description            Shells   Functions and Types
 ---------------- ------------------------------  ------  ---------------------
 O                          cc-pvdz                  6       14   3s2p1d
 H                          cc-pvdz                  3        5   2s1p


                                 NWChem SCF Module
                                 -----------------



  ao basis        = "ao basis"
  functions       =    72
  atoms           =     9
  closed shells   =    15
  open shells     =     0
  charge          =   0.00
  wavefunction    = RHF 
  input vectors   = atomic
  output vectors  = ./input_3_3_at_worker_3.movecs
  use symmetry    = F
  symmetry adapt  = F


 Summary of "ao basis" -> "ao basis" (spherical)
 ------------------------------------------------------------------------------
       Tag                 Description            Shells   Functions and Types
 ---------------- ------------------------------  ------  ---------------------
 O                          cc-pvdz                  6       14   3s2p1d
 H                          cc-pvdz                  3        5   2s1p



 Forming initial guess at       0.0s


      Superposition of Atomic Density Guess
      -------------------------------------

 Sum of atomic energies:        -227.28668731

      Non-variational initial energy
      ------------------------------

 Total energy =    -227.787706
 1-e energy   =    -467.404840
 2-e energy   =     161.077225
 HOMO         =      -0.463529
 LUMO         =       0.046129


 Starting SCF solution at       0.3s



 ----------------------------------------------
         Quadratically convergent ROHF

 Convergence threshold     :          1.000E-04
 Maximum no. of iterations :           30
 Final Fock-matrix accuracy:          1.000E-07
 ----------------------------------------------


 Integral file          = ./input_3_3_at_worker_3.aoints.0
 Record size in doubles =  65536        No. of integs per rec  =  43688
 Max. records in memory =    110        Max. records in file   = 400204
 No. of bits per label  =      8        No. of bits per value  =     64


 #quartets = 1.755D+05 #integrals = 2.216D+06 #direct =  0.0% #cached =100.0%


              iter       energy          gnorm     gmax       time
             ----- ------------------- --------- --------- --------
                 1     -227.9989492767  1.34D+00  1.99D-01      0.7
                 2     -228.0846345788  2.95D-01  7.68D-02      0.8
                 3     -228.0916002506  2.48D-02  5.02D-03      0.9
                 4     -228.0916535829  4.55D-04  1.01D-04      1.0
                 5     -228.0916535981  8.96D-06  2.38D-06      1.2


       Final RHF  results 
       ------------------ 

         Total SCF energy =   -228.091653598103
      One-electron energy =   -471.328050576146
      Two-electron energy =    164.696487791545
 Nuclear repulsion energy =     78.539909186498

        Time for solution =      0.9s


             Final eigenvalues
             -----------------

              1      
    1  -20.6056
    2  -20.5460
    3  -20.5158
    4   -1.3829
    5   -1.3258
    6   -1.2937
    7   -0.7450
    8   -0.7020
    9   -0.6562
   10   -0.6167
   11   -0.5708
   12   -0.5381
   13   -0.5265
   14   -0.4849
   15   -0.4573
   16    0.1362
   17    0.1994
   18    0.2116
   19    0.2809
   20    0.3557
   21    0.3925
   22    0.7263
   23    0.7532
   24    0.8055
   25    0.8162

                       ROHF Final Molecular Orbital Analysis
                       -------------------------------------

 Vector    4  Occ=2.000000D+00  E=-1.382947D+00
              MO Center=  1.8D+00, -9.1D-01,  3.1D-01, r^2= 6.4D-01
   Bfn.  Coefficient  Atom+Function         Bfn.  Coefficient  Atom+Function  
  ----- ------------  ---------------      ----- ------------  ---------------
    50      0.441343  7 O  s                 51      0.388716  7 O  s          
    63      0.184937  8 H  s                 68      0.177378  9 H  s          

 Vector    5  Occ=2.000000D+00  E=-1.325829D+00
              MO Center= -8.8D-03,  9.9D-01,  8.3D-01, r^2= 8.4D-01
   Bfn.  Coefficient  Atom+Function         Bfn.  Coefficient  Atom+Function  
  ----- ------------  ---------------      ----- ------------  ---------------
     2      0.434504  1 O  s                  3      0.387856  1 O  s          
    20      0.185524  3 H  s                 15      0.169136  2 H  s          

 Vector    6  Occ=2.000000D+00  E=-1.293749D+00
              MO Center= -1.7D+00, -1.1D-01, -1.1D+00, r^2= 7.1D-01
   Bfn.  Coefficient  Atom+Function         Bfn.  Coefficient  Atom+Function  
  ----- ------------  ---------------      ----- ------------  ---------------
    26      0.438500  4 O  s                 27      0.385040  4 O  s          
    44      0.188709  6 H  s                 39      0.179495  5 H  s          

 Vector    7  Occ=2.000000D+00  E=-7.449584D-01
              MO Center=  1.7D+00, -9.0D-01,  3.5D-01, r^2= 1.1D+00
   Bfn.  Coefficient  Atom+Function         Bfn.  Coefficient  Atom+Function  
  ----- ------------  ---------------      ----- ------------  ---------------
    52      0.417498  7 O  px                63      0.326797  8 H  s          
    68     -0.292984  9 H  s                 54      0.227601  7 O  pz         
    55      0.200629  7 O  px         

 Vector    8  Occ=2.000000D+00  E=-7.020388D-01
              MO Center=  3.4D-01,  7.2D-01,  7.6D-01, r^2= 1.8D+00
   Bfn.  Coefficient  Atom+Function         Bfn.  Coefficient  Atom+Function  
  ----- ------------  ---------------      ----- ------------  ---------------
     5      0.395862  1 O  py                15     -0.287897  2 H  s          
    20      0.288678  3 H  s                 53     -0.203036  7 O  py         
     8      0.185005  1 O  py                 4     -0.158834  1 O  px         

 Vector    9  Occ=2.000000D+00  E=-6.561782D-01
              MO Center= -1.5D+00, -8.5D-02, -9.8D-01, r^2= 1.3D+00
   Bfn.  Coefficient  Atom+Function         Bfn.  Coefficient  Atom+Function  
  ----- ------------  ---------------      ----- ------------  ---------------
    29      0.432851  4 O  py                39      0.310263  5 H  s          
    44     -0.306915  6 H  s                 32      0.202821  4 O  py         
    30      0.175510  4 O  pz         

 Vector   10  Occ=2.000000D+00  E=-6.167387D-01
              MO Center=  1.4D+00, -4.6D-01,  2.9D-01, r^2= 2.0D+00
   Bfn.  Coefficient  Atom+Function         Bfn.  Coefficient  Atom+Function  
  ----- ------------  ---------------      ----- ------------  ---------------
    53      0.442684  7 O  py                51      0.310240  7 O  s          
    56      0.288431  7 O  py                54     -0.222060  7 O  pz         
     5      0.194177  1 O  py                63     -0.187499  8 H  s          
    68     -0.181831  9 H  s          

 Vector   11  Occ=2.000000D+00  E=-5.708428D-01
              MO Center=  1.3D-01,  3.1D-01,  3.6D-01, r^2= 3.3D+00
   Bfn.  Coefficient  Atom+Function         Bfn.  Coefficient  Atom+Function  
  ----- ------------  ---------------      ----- ------------  ---------------
     4      0.377937  1 O  px                54      0.278953  7 O  pz         
     7      0.257553  1 O  px                 3     -0.251631  1 O  s          
    57      0.211017  7 O  pz                20      0.165424  3 H  s          
    52     -0.153049  7 O  px         

 Vector   12  Occ=2.000000D+00  E=-5.381150D-01
              MO Center= -1.5D-01, -3.4D-01, -4.5D-01, r^2= 4.7D+00
   Bfn.  Coefficient  Atom+Function         Bfn.  Coefficient  Atom+Function  
  ----- ------------  ---------------      ----- ------------  ---------------
    54      0.320272  7 O  pz                28      0.307015  4 O  px         
    57      0.249765  7 O  pz                27     -0.238317  4 O  s          
    52     -0.222754  7 O  px                31      0.209460  4 O  px         
    30      0.189962  4 O  pz                55     -0.171351  7 O  px         
    53      0.161051  7 O  py                44      0.159866  6 H  s          

 Vector   13  Occ=2.000000D+00  E=-5.265352D-01
              MO Center= -8.5D-02,  9.4D-02,  6.9D-02, r^2= 4.1D+00
   Bfn.  Coefficient  Atom+Function         Bfn.  Coefficient  Atom+Function  
  ----- ------------  ---------------      ----- ------------  ---------------
     4      0.314919  1 O  px                28      0.260109  4 O  px         
    54     -0.239209  7 O  pz                 7      0.214676  1 O  px         
    52      0.196118  7 O  px                57     -0.194149  7 O  pz         
    31      0.181334  4 O  px                53     -0.179845  7 O  py         
     6     -0.169227  1 O  pz                27     -0.165151  4 O  s          

 Vector   14  Occ=2.000000D+00  E=-4.849174D-01
              MO Center= -3.2D-01,  8.8D-01,  6.4D-01, r^2= 1.5D+00
   Bfn.  Coefficient  Atom+Function         Bfn.  Coefficient  Atom+Function  
  ----- ------------  ---------------      ----- ------------  ---------------
     6      0.574744  1 O  pz                 9      0.455405  1 O  pz         
    28      0.154613  4 O  px         

 Vector   15  Occ=2.000000D+00  E=-4.573368D-01
              MO Center= -1.8D+00, -9.4D-02, -1.2D+00, r^2= 6.2D-01
   Bfn.  Coefficient  Atom+Function         Bfn.  Coefficient  Atom+Function  
  ----- ------------  ---------------      ----- ------------  ---------------
    30      0.496817  4 O  pz                33      0.395108  4 O  pz         
    28     -0.351723  4 O  px                31     -0.279671  4 O  px         
    29     -0.156247  4 O  py         

 Vector   16  Occ=0.000000D+00  E= 1.361877D-01
              MO Center=  1.0D+00, -1.2D+00,  2.1D-01, r^2= 4.9D+00
   Bfn.  Coefficient  Atom+Function         Bfn.  Coefficient  Atom+Function  
  ----- ------------  ---------------      ----- ------------  ---------------
    51      0.822890  7 O  s                 69     -0.780087  9 H  s          
    64     -0.575393  8 H  s                 45     -0.459348  6 H  s          
    21     -0.328633  3 H  s                 27      0.293094  4 O  s          
    56     -0.269539  7 O  py                 3      0.246574  1 O  s          

 Vector   17  Occ=0.000000D+00  E= 1.994166D-01
              MO Center=  1.3D+00, -1.2D+00,  3.1D-01, r^2= 6.3D+00
   Bfn.  Coefficient  Atom+Function         Bfn.  Coefficient  Atom+Function  
  ----- ------------  ---------------      ----- ------------  ---------------
    64      1.324864  8 H  s                 69     -0.716971  9 H  s          
    45     -0.709115  6 H  s                 27      0.403812  4 O  s          
    55     -0.397922  7 O  px                51     -0.371333  7 O  s          
    57     -0.281750  7 O  pz                32     -0.212689  4 O  py         
    52     -0.183193  7 O  px         

 Vector   18  Occ=0.000000D+00  E= 2.116098D-01
              MO Center=  2.5D-01,  1.7D+00,  9.4D-01, r^2= 4.0D+00
   Bfn.  Coefficient  Atom+Function         Bfn.  Coefficient  Atom+Function  
  ----- ------------  ---------------      ----- ------------  ---------------
    21      1.307470  3 H  s                  3     -0.834502  1 O  s          
     8     -0.373603  1 O  py                69     -0.374967  9 H  s          
    51      0.274308  7 O  s                 40      0.207092  5 H  s          
     5     -0.180916  1 O  py         

 Vector   19  Occ=0.000000D+00  E= 2.808935D-01
              MO Center= -1.7D-01, -1.2D+00, -4.8D-01, r^2= 5.7D+00
   Bfn.  Coefficient  Atom+Function         Bfn.  Coefficient  Atom+Function  
  ----- ------------  ---------------      ----- ------------  ---------------
    69      1.222088  9 H  s                 45     -1.081327  6 H  s          
    27      0.760560  4 O  s                 64     -0.678792  8 H  s          
    55      0.371327  7 O  px                21      0.316413  3 H  s          
    32     -0.255438  4 O  py                51     -0.236615  7 O  s          
    56      0.228251  7 O  py                16     -0.221418  2 H  s          

 Vector   20  Occ=0.000000D+00  E= 3.557489D-01
              MO Center= -3.9D-01,  5.8D-01, -6.0D-02, r^2= 5.0D+00
   Bfn.  Coefficient  Atom+Function         Bfn.  Coefficient  Atom+Function  
  ----- ------------  ---------------      ----- ------------  ---------------
    40      1.337833  5 H  s                 16      1.194806  2 H  s          
    21     -0.917165  3 H  s                 45     -0.860762  6 H  s          
     8      0.473978  1 O  py                32     -0.431979  4 O  py         
    64     -0.329554  8 H  s                  3     -0.318760  1 O  s          
    27     -0.270632  4 O  s                  9      0.254233  1 O  pz         

 Vector   21  Occ=0.000000D+00  E= 3.925214D-01
              MO Center=  7.4D-02,  5.5D-01,  2.5D-01, r^2= 4.8D+00
   Bfn.  Coefficient  Atom+Function         Bfn.  Coefficient  Atom+Function  
  ----- ------------  ---------------      ----- ------------  ---------------
    16      1.825672  2 H  s                 40     -1.413298  5 H  s          
    45      0.576064  6 H  s                  3     -0.497862  1 O  s          
     7     -0.477650  1 O  px                21     -0.475319  3 H  s          
    27      0.470079  4 O  s                 69     -0.343819  9 H  s          
    32      0.332113  4 O  py                 8      0.306581  1 O  py         

 Vector   22  Occ=0.000000D+00  E= 7.262630D-01
              MO Center=  1.5D+00, -8.2D-01,  3.9D-01, r^2= 2.8D+00
   Bfn.  Coefficient  Atom+Function         Bfn.  Coefficient  Atom+Function  
  ----- ------------  ---------------      ----- ------------  ---------------
    68      0.923614  9 H  s                 63     -0.832596  8 H  s          
    69     -0.727984  9 H  s                 64      0.597986  8 H  s          
    55      0.413116  7 O  px                16      0.388483  2 H  s          
    15     -0.266042  2 H  s                 20     -0.263210  3 H  s          
    57      0.185447  7 O  pz                52      0.159154  7 O  px         

 Vector   23  Occ=0.000000D+00  E= 7.532484D-01
              MO Center= -5.3D-01,  4.9D-01,  4.1D-02, r^2= 3.7D+00
   Bfn.  Coefficient  Atom+Function         Bfn.  Coefficient  Atom+Function  
  ----- ------------  ---------------      ----- ------------  ---------------
    16     -0.826485  2 H  s                 15      0.810830  2 H  s          
    40      0.645609  5 H  s                 44      0.644446  6 H  s          
    20     -0.613624  3 H  s                 39     -0.513275  5 H  s          
    21      0.445564  3 H  s                 45     -0.435715  6 H  s          
     8      0.348300  1 O  py                32      0.235795  4 O  py         

 Vector   24  Occ=0.000000D+00  E= 8.055166D-01
              MO Center=  1.5D+00, -1.1D+00,  4.2D-01, r^2= 3.2D+00
   Bfn.  Coefficient  Atom+Function         Bfn.  Coefficient  Atom+Function  
  ----- ------------  ---------------      ----- ------------  ---------------
    63      0.843180  8 H  s                 68      0.739482  9 H  s          
    69     -0.566046  9 H  s                 64     -0.559104  8 H  s          
    45      0.306562  6 H  s                 20     -0.282436  3 H  s          
    51      0.283595  7 O  s                 50     -0.265924  7 O  s          
    39      0.256134  5 H  s                 40     -0.254703  5 H  s          

 Vector   25  Occ=0.000000D+00  E= 8.162319D-01
              MO Center= -2.6D-01,  1.1D-01, -8.3D-02, r^2= 4.2D+00
   Bfn.  Coefficient  Atom+Function         Bfn.  Coefficient  Atom+Function  
  ----- ------------  ---------------      ----- ------------  ---------------
    16      0.929604  2 H  s                 15     -0.792495  2 H  s          
    39     -0.779331  5 H  s                 40      0.547390  5 H  s          
    44      0.513085  6 H  s                 45     -0.474378  6 H  s          
    63      0.360875  8 H  s                 64     -0.327919  8 H  s          
    21     -0.295749  3 H  s                 32      0.270441  4 O  py         


 center of mass
 --------------
 x =  -0.05862433 y =   0.02716542 z =  -0.03119413

 moments of inertia (a.u.)
 ------------------
         274.021144503194          93.241249847818        -162.869746710389
          93.241249847818         566.666201764848         -53.983305949524
        -162.869746710389         -53.983305949524         544.713122013816

  Mulliken analysis of the total density
  --------------------------------------

    Atom       Charge   Shell Charges
 -----------   ------   -------------------------------------------------------
    1 O    8     8.37   2.00  0.83  0.84  2.83  1.86  0.01
    2 H    1     0.80   0.63  0.09  0.09
    3 H    1     0.84   0.68  0.07  0.08
    4 O    8     8.36   2.00  0.83  0.84  2.81  1.86  0.01
    5 H    1     0.82   0.65  0.09  0.09
    6 H    1     0.86   0.69  0.09  0.08
    7 O    8     8.32   2.00  0.83  0.84  2.82  1.81  0.01
    8 H    1     0.82   0.67  0.06  0.08
    9 H    1     0.81   0.66  0.07  0.08

       Multipole analysis of the density wrt the origin
       ------------------------------------------------

     L   x y z        total         open         nuclear
     -   - - -        -----         ----         -------
     0   0 0 0     -0.000000      0.000000     30.000000

     1   1 0 0      1.762963      0.000000      0.000000
     1   0 1 0     -0.738776      0.000000     -0.000000
     1   0 0 1      0.882679      0.000000      0.000000

     2   2 0 0    -16.994256      0.000000    229.532378
     2   1 1 0     -0.959666      0.000000    -52.429414
     2   1 0 1      0.589944      0.000000     90.833395
     2   0 2 0     -7.278951      0.000000     78.431446
     2   0 1 1      0.506564      0.000000     30.595281
     2   0 0 2    -16.349409      0.000000     81.373502


 Parallel integral file used      51 records with       0 large values

                              NWChem Gradients Module
                              -----------------------



  wavefunction    =   RHF     



                         RHF ENERGY GRADIENTS

    atom               coordinates                        gradient
                 x          y          z           x          y          z
   1 O      -0.282230   1.885760   1.677359   -0.030106  -0.005180   0.001736
   2 H       1.276491   0.927921   1.325145    0.027046  -0.020037  -0.007433
   3 H       0.255696   3.595629   2.011614    0.005809   0.019436   0.004505
   4 O      -3.490425  -0.169757  -2.309624   -0.030215   0.012758  -0.014167
   5 H      -2.444051   0.882190  -1.217106    0.016576   0.012340   0.011226
   6 H      -2.636865  -1.796508  -2.216508    0.015819  -0.025014   0.002897
   7 O       3.373330  -1.530963   0.419783    0.007527   0.036015  -0.006683
   8 H       4.604187  -2.188161   1.594654    0.013183  -0.005760   0.012426
   9 H       2.139143  -2.901389   0.202055   -0.025638  -0.024558  -0.004505

                 ----------------------------------------
                 |  Time  |  1-e(secs)   |  2-e(secs)   |
                 ----------------------------------------
                 |  CPU   |       0.01   |       0.91   |
                 ----------------------------------------
                 |  WALL  |       0.01   |       0.91   |
                 ----------------------------------------

 Task  times  cpu:        2.1s     wall:        2.1s


                                NWChem Input Module
                                -------------------


 Summary of allocated global arrays
-----------------------------------
  No active global arrays



                         GA Statistics for process    0
                         ------------------------------

       create   destroy   get      put      acc     scatter   gather  read&inc
calls:  249      249     8485     3853     3497        0        0      141     
number of processes/call 0.00e+00 0.00e+00 0.00e+00 0.00e+00 0.00e+00
bytes total:             1.41e+07 8.43e+06 2.03e+06 0.00e+00 0.00e+00 1.13e+03
bytes remote:            0.00e+00 0.00e+00 0.00e+00 0.00e+00 0.00e+00 0.00e+00
Max memory consumed for GA by this process: 539136 bytes

MA_summarize_allocated_blocks: starting scan ...
MA_summarize_allocated_blocks: scan completed: 0 heap blocks, 0 stack blocks
MA usage statistics:

	allocation statistics:
					      heap	     stack
					      ----	     -----
	current number of blocks	         0	         0
	maximum number of blocks	        18	        28
	current total bytes		         0	         0
	maximum total bytes		  57703096	  26171384
	maximum total K-bytes		     57704	     26172
	maximum total M-bytes		        58	        27


                                     CITATION
                                     --------
                Please cite the following reference when publishing
                           results obtained with NWChem:

          E. Aprà, E. J. Bylaska, W. A. de Jong, N. Govind, K. Kowalski,
       T. P. Straatsma, M. Valiev, H. J. J. van Dam, Y. Alexeev, J. Anchell,
       V. Anisimov, F. W. Aquino, R. Atta-Fynn, J. Autschbach, N. P. Bauman,
     J. C. Becca, D. E. Bernholdt, K. Bhaskaran-Nair, S. Bogatko, P. Borowski,
        J. Boschen, J. Brabec, A. Bruner, E. Cauët, Y. Chen, G. N. Chuev,
      C. J. Cramer, J. Daily, M. J. O. Deegan, T. H. Dunning Jr., M. Dupuis,
   K. G. Dyall, G. I. Fann, S. A. Fischer, A. Fonari, H. Früchtl, L. Gagliardi,
      J. Garza, N. Gawande, S. Ghosh, K. Glaesemann, A. W. Götz, J. Hammond,
       V. Helms, E. D. Hermes, K. Hirao, S. Hirata, M. Jacquelin, L. Jensen,
   B. G. Johnson, H. Jónsson, R. A. Kendall, M. Klemm, R. Kobayashi, V. Konkov,
      S. Krishnamoorthy, M. Krishnan, Z. Lin, R. D. Lins, R. J. Littlefield,
      A. J. Logsdail, K. Lopata, W. Ma, A. V. Marenich, J. Martin del Campo,
   D. Mejia-Rodriguez, J. E. Moore, J. M. Mullin, T. Nakajima, D. R. Nascimento,
    J. A. Nichols, P. J. Nichols, J. Nieplocha, A. Otero-de-la-Roza, B. Palmer,
    A. Panyala, T. Pirojsirikul, B. Peng, R. Peverati, J. Pittner, L. Pollack,
   R. M. Richard, P. Sadayappan, G. C. Schatz, W. A. Shelton, D. W. Silverstein,
   D. M. A. Smith, T. A. Soares, D. Song, M. Swart, H. L. Taylor, G. S. Thomas,
            V. Tipparaju, D. G. Truhlar, K. Tsemekhman, T. Van Voorhis,
     Á. Vázquez-Mayagoitia, P. Verma, O. Villa, A. Vishnu, K. D. Vogiatzis,
        D. Wang, J. H. Weare, M. J. Williamson, T. L. Windus, K. Woliński,
        A. T. Wong, Q. Wu, C. Yang, Q. Yu, M. Zacharias, Z. Zhang, Y. Zhao,
                                and R. J. Harrison
                        "NWChem: Past, present, and future
                         J. Chem. Phys. 152, 184102 (2020)
                               doi:10.1063/5.0004997

                                      AUTHORS
                                      -------
     E. Apra, E. J. Bylaska, N. Govind, K. Kowalski, M. Valiev, W. A. de Jong,
      T. P. Straatsma, H. J. J. van Dam, D. Wang, T. L. Windus, N. P. Bauman,
       A. Panyala, J. Hammond, J. Autschbach, K. Bhaskaran-Nair, J. Brabec,
    K. Lopata, S. A. Fischer, S. Krishnamoorthy, M. Jacquelin, W. Ma, M. Klemm,
       O. Villa, Y. Chen, V. Anisimov, F. Aquino, S. Hirata, M. T. Hackler,
           Eric Hermes, L. Jensen, J. E. Moore, J. C. Becca, V. Konjkov,
            D. Mejia-Rodriguez, T. Risthaus, M. Malagoli, A. Marenich,
   A. Otero-de-la-Roza, J. Mullin, P. Nichols, R. Peverati, J. Pittner, Y. Zhao,
        P.-D. Fan, A. Fonari, M. J. Williamson, R. J. Harrison, J. R. Rehr,
      M. Dupuis, D. Silverstein, D. M. A. Smith, J. Nieplocha, V. Tipparaju,
      M. Krishnan, B. E. Van Kuiken, A. Vazquez-Mayagoitia, M. Swart, Q. Wu,
   T. Van Voorhis, A. A. Auer, M. Nooijen, L. D. Crosby, E. Brown, G. Cisneros,
     G. I. Fann, H. Fruchtl, J. Garza, K. Hirao, R. A. Kendall, J. A. Nichols,
       K. Tsemekhman, K. Wolinski, J. Anchell, D. E. Bernholdt, P. Borowski,
       T. Clark, D. Clerc, H. Dachsel, M. J. O. Deegan, K. Dyall, D. Elwood,
      E. Glendening, M. Gutowski, A. C. Hess, J. Jaffe, B. G. Johnson, J. Ju,
        R. Kobayashi, R. Kutteh, Z. Lin, R. Littlefield, X. Long, B. Meng,
      T. Nakajima, S. Niu, L. Pollack, M. Rosing, K. Glaesemann, G. Sandrone,
      M. Stave, H. Taylor, G. Thomas, J. H. van Lenthe, A. T. Wong, Z. Zhang.

 Total times  cpu:        2.1s     wall:        2.1s
