 argument  1 = nwchem/input_3_15_at_worker_3_1.nw



============================== echo of input deck ==============================
echo
memory 1000 mb
geometry noautosym noautoz
O -0.82054445 0.61636011 -1.6312343
H -0.26682713 1.17302621 -1.05309865
H -0.36885969 -0.24447946 -1.58195952
O 0.57630762 -1.69154092 -0.42866929
H 0.43417462 -2.64420081 -0.48595869
H 0.08911917 -1.3894609 0.38589939
O -2.88801599 -0.0663369 0.05761427
H -2.29024563 0.26724676 -0.65069518
H -3.66545029 0.50362404 0.03495814
end
basis spherical
 * library cc-pvdz
end
task scf gradient
================================================================================


                                         
                                         


             Northwest Computational Chemistry Package (NWChem) 7.0.2
             --------------------------------------------------------


                    Environmental Molecular Sciences Laboratory
                       Pacific Northwest National Laboratory
                                Richland, WA 99352

                              Copyright (c) 1994-2020
                       Pacific Northwest National Laboratory
                            Battelle Memorial Institute

             NWChem is an open-source computational chemistry package
                        distributed under the terms of the
                      Educational Community License (ECL) 2.0
             A copy of the license is included with this distribution
                              in the LICENSE.TXT file

                                  ACKNOWLEDGMENT
                                  --------------

            This software and its documentation were developed at the
            EMSL at Pacific Northwest National Laboratory, a multiprogram
            national laboratory, operated for the U.S. Department of Energy
            by Battelle under Contract Number DE-AC05-76RL01830. Support
            for this work was provided by the Department of Energy Office
            of Biological and Environmental Research, Office of Basic
            Energy Sciences, and the Office of Advanced Scientific Computing.


           Job information
           ---------------

    hostname        = pop-os
    program         = nwchem
    date            = Thu Jul  8 18:22:25 2021

    compiled        = Wed_Jan_06_19:48:08_2021
    source          = /build/nwchem-ksKH2r/nwchem-7.0.2
    nwchem branch   = 7.0.2
    nwchem revision = N/A
    ga revision     = 5.7.1
    use scalapack   = T
    input           = nwchem/input_3_15_at_worker_3_1.nw
    prefix          = input_3_15_at_worker_3_1.
    data base       = ./input_3_15_at_worker_3_1.db
    status          = startup
    nproc           =        1
    time left       =     -1s



           Memory information
           ------------------

    heap     =   32767998 doubles =    250.0 Mbytes
    stack    =   32767995 doubles =    250.0 Mbytes
    global   =   65536000 doubles =    500.0 Mbytes (distinct from heap & stack)
    total    =  131071993 doubles =   1000.0 Mbytes
    verify   = yes
    hardfail = no 


           Directory information
           ---------------------

  0 permanent = .
  0 scratch   = .




                                NWChem Input Module
                                -------------------



 Scaling coordinates for geometry "geometry" by  1.889725989
 (inverse scale =  0.529177249)



                             Geometry "geometry" -> ""
                             -------------------------

 Output coordinates in angstroms (scale by  1.889725989 to convert to a.u.)

  No.       Tag          Charge          X              Y              Z
 ---- ---------------- ---------- -------------- -------------- --------------
    1 O                    8.0000     0.21699260     0.99857297    -0.98559533
    2 H                    1.0000     0.77070992     1.55523907    -0.40745968
    3 H                    1.0000     0.66867736     0.13773340    -0.93632055
    4 O                    8.0000     1.61384467    -1.30932806     0.21696968
    5 H                    1.0000     1.47171167    -2.26198795     0.15968028
    6 H                    1.0000     1.12665622    -1.00724804     1.03153836
    7 O                    8.0000    -1.85047894     0.31587596     0.70325324
    8 H                    1.0000    -1.25270858     0.64945962    -0.00505621
    9 H                    1.0000    -2.62791324     0.88583690     0.68059711

      Atomic Mass 
      ----------- 

      O                 15.994910
      H                  1.007825


 Effective nuclear repulsion energy (a.u.)      78.3968518427

            Nuclear Dipole moment (a.u.) 
            ----------------------------
        X                 Y               Z
 ---------------- ---------------- ----------------
    -0.0000000000     0.0000000000    -0.0000000000


            XYZ format geometry
            -------------------
     9
 geometry
 O                     0.21699260     0.99857297    -0.98559533
 H                     0.77070992     1.55523907    -0.40745968
 H                     0.66867736     0.13773340    -0.93632055
 O                     1.61384467    -1.30932806     0.21696968
 H                     1.47171167    -2.26198795     0.15968028
 H                     1.12665622    -1.00724804     1.03153836
 O                    -1.85047894     0.31587596     0.70325324
 H                    -1.25270858     0.64945962    -0.00505621
 H                    -2.62791324     0.88583690     0.68059711

 ==============================================================================
                                internuclear distances
 ------------------------------------------------------------------------------
       center one      |      center two      | atomic units |  angstroms
 ------------------------------------------------------------------------------
    2 H                |   1 O                |     1.84258  |     0.97505
    3 H                |   1 O                |     1.83944  |     0.97339
    5 H                |   4 O                |     1.82341  |     0.96491
    6 H                |   4 O                |     1.88227  |     0.99606
    8 H                |   7 O                |     1.86146  |     0.98504
    9 H                |   7 O                |     1.82216  |     0.96425
 ------------------------------------------------------------------------------
                         number of included internuclear distances:          6
 ==============================================================================



 ==============================================================================
                                 internuclear angles
 ------------------------------------------------------------------------------
        center 1       |       center 2       |       center 3       |  degrees
 ------------------------------------------------------------------------------
    2 H                |   1 O                |   3 H                |   102.20
    5 H                |   4 O                |   6 H                |   106.02
    8 H                |   7 O                |   9 H                |   105.80
 ------------------------------------------------------------------------------
                            number of included internuclear angles:          3
 ==============================================================================





 Summary of "ao basis" -> "" (spherical)
 ------------------------------------------------------------------------------
       Tag                 Description            Shells   Functions and Types
 ---------------- ------------------------------  ------  ---------------------
 *                          cc-pvdz                   on all atoms 


                      Basis "ao basis" -> "ao basis" (spherical)
                      -----
  O (Oxygen)
  ----------
            Exponent  Coefficients 
       -------------- ---------------------------------------------------------
  1 S  1.17200000E+04  0.000710
  1 S  1.75900000E+03  0.005470
  1 S  4.00800000E+02  0.027837
  1 S  1.13700000E+02  0.104800
  1 S  3.70300000E+01  0.283062
  1 S  1.32700000E+01  0.448719
  1 S  5.02500000E+00  0.270952
  1 S  1.01300000E+00  0.015458

  2 S  1.17200000E+04 -0.000160
  2 S  1.75900000E+03 -0.001263
  2 S  4.00800000E+02 -0.006267
  2 S  1.13700000E+02 -0.025716
  2 S  3.70300000E+01 -0.070924
  2 S  1.32700000E+01 -0.165411
  2 S  5.02500000E+00 -0.116955
  2 S  1.01300000E+00  0.557368

  3 S  3.02300000E-01  1.000000

  4 P  1.77000000E+01  0.043018
  4 P  3.85400000E+00  0.228913
  4 P  1.04600000E+00  0.508728

  5 P  2.75300000E-01  1.000000

  6 D  1.18500000E+00  1.000000

  H (Hydrogen)
  ------------
            Exponent  Coefficients 
       -------------- ---------------------------------------------------------
  1 S  1.30100000E+01  0.019685
  1 S  1.96200000E+00  0.137977
  1 S  4.44600000E-01  0.478148

  2 S  1.22000000E-01  1.000000

  3 P  7.27000000E-01  1.000000



 Summary of "ao basis" -> "ao basis" (spherical)
 ------------------------------------------------------------------------------
       Tag                 Description            Shells   Functions and Types
 ---------------- ------------------------------  ------  ---------------------
 O                          cc-pvdz                  6       14   3s2p1d
 H                          cc-pvdz                  3        5   2s1p


                                 NWChem SCF Module
                                 -----------------



  ao basis        = "ao basis"
  functions       =    72
  atoms           =     9
  closed shells   =    15
  open shells     =     0
  charge          =   0.00
  wavefunction    = RHF 
  input vectors   = atomic
  output vectors  = ./input_3_15_at_worker_3_1.movecs
  use symmetry    = F
  symmetry adapt  = F


 Summary of "ao basis" -> "ao basis" (spherical)
 ------------------------------------------------------------------------------
       Tag                 Description            Shells   Functions and Types
 ---------------- ------------------------------  ------  ---------------------
 O                          cc-pvdz                  6       14   3s2p1d
 H                          cc-pvdz                  3        5   2s1p



 Forming initial guess at       0.0s


      Superposition of Atomic Density Guess
      -------------------------------------

 Sum of atomic energies:        -227.28668731

      Non-variational initial energy
      ------------------------------

 Total energy =    -227.766003
 1-e energy   =    -467.140694
 2-e energy   =     160.977839
 HOMO         =      -0.459240
 LUMO         =       0.051793


 Starting SCF solution at       0.3s



 ----------------------------------------------
         Quadratically convergent ROHF

 Convergence threshold     :          1.000E-04
 Maximum no. of iterations :           30
 Final Fock-matrix accuracy:          1.000E-07
 ----------------------------------------------


 Integral file          = ./input_3_15_at_worker_3_1.aoints.0
 Record size in doubles =  65536        No. of integs per rec  =  43688
 Max. records in memory =    110        Max. records in file   = 400185
 No. of bits per label  =      8        No. of bits per value  =     64


 #quartets = 1.732D+05 #integrals = 2.209D+06 #direct =  0.0% #cached =100.0%


              iter       energy          gnorm     gmax       time
             ----- ------------------- --------- --------- --------
                 1     -228.0052125479  1.33D+00  2.99D-01      0.8
                 2     -228.0884735474  2.90D-01  6.59D-02      0.9
                 3     -228.0952318681  2.46D-02  4.58D-03      0.9
                 4     -228.0952855900  4.63D-04  9.17D-05      1.1
                 5     -228.0952856066  9.72D-06  1.89D-06      1.2


       Final RHF  results 
       ------------------ 

         Total SCF energy =   -228.095285606615
      One-electron energy =   -471.110892528731
      Two-electron energy =    164.618755079425
 Nuclear repulsion energy =     78.396851842691

        Time for solution =      0.8s


             Final eigenvalues
             -----------------

              1      
    1  -20.5831
    2  -20.5661
    3  -20.5148
    4   -1.3554
    5   -1.3442
    6   -1.2944
    7   -0.7200
    8   -0.6996
    9   -0.6725
   10   -0.5991
   11   -0.5785
   12   -0.5391
   13   -0.5168
   14   -0.4931
   15   -0.4599
   16    0.1558
   17    0.2068
   18    0.2344
   19    0.2491
   20    0.3184
   21    0.3998
   22    0.7232
   23    0.7716
   24    0.8018
   25    0.8267

                       ROHF Final Molecular Orbital Analysis
                       -------------------------------------

 Vector    4  Occ=2.000000D+00  E=-1.355390D+00
              MO Center=  1.3D+00, -9.5D-01,  8.1D-02, r^2= 1.8D+00
   Bfn.  Coefficient  Atom+Function         Bfn.  Coefficient  Atom+Function  
  ----- ------------  ---------------      ----- ------------  ---------------
    26      0.400146  4 O  s                 27      0.355232  4 O  s          
     2      0.191360  1 O  s                 39      0.169226  5 H  s          
     3      0.164438  1 O  s                 44      0.155179  6 H  s          

 Vector    5  Occ=2.000000D+00  E=-1.344222D+00
              MO Center=  5.3D-01,  4.9D-01, -6.3D-01, r^2= 2.0D+00
   Bfn.  Coefficient  Atom+Function         Bfn.  Coefficient  Atom+Function  
  ----- ------------  ---------------      ----- ------------  ---------------
     2      0.395028  1 O  s                  3      0.352240  1 O  s          
    26     -0.197411  4 O  s                 27     -0.176608  4 O  s          
    15      0.164866  2 H  s                 20      0.158460  3 H  s          

 Vector    6  Occ=2.000000D+00  E=-1.294442D+00
              MO Center= -1.8D+00,  4.5D-01,  5.7D-01, r^2= 6.9D-01
   Bfn.  Coefficient  Atom+Function         Bfn.  Coefficient  Atom+Function  
  ----- ------------  ---------------      ----- ------------  ---------------
    50      0.437931  7 O  s                 51      0.389395  7 O  s          
    68      0.190104  9 H  s                 63      0.171674  8 H  s          

 Vector    7  Occ=2.000000D+00  E=-7.200051D-01
              MO Center=  1.4D+00, -1.3D+00,  2.6D-01, r^2= 1.4D+00
   Bfn.  Coefficient  Atom+Function         Bfn.  Coefficient  Atom+Function  
  ----- ------------  ---------------      ----- ------------  ---------------
    29      0.402432  4 O  py                39     -0.321674  5 H  s          
    44      0.289102  6 H  s                 30      0.226703  4 O  pz         
    32      0.193314  4 O  py         

 Vector    8  Occ=2.000000D+00  E=-6.995674D-01
              MO Center=  4.9D-01,  7.4D-01, -7.5D-01, r^2= 1.5D+00
   Bfn.  Coefficient  Atom+Function         Bfn.  Coefficient  Atom+Function  
  ----- ------------  ---------------      ----- ------------  ---------------
     5      0.441977  1 O  py                15      0.305099  2 H  s          
    20     -0.294062  3 H  s                  8      0.214280  1 O  py         
     6      0.159538  1 O  pz         

 Vector    9  Occ=2.000000D+00  E=-6.725495D-01
              MO Center= -1.7D+00,  5.3D-01,  4.1D-01, r^2= 1.4D+00
   Bfn.  Coefficient  Atom+Function         Bfn.  Coefficient  Atom+Function  
  ----- ------------  ---------------      ----- ------------  ---------------
    52      0.403850  7 O  px                63      0.303390  8 H  s          
    68     -0.302686  9 H  s                 54     -0.207261  7 O  pz         
    55      0.189042  7 O  px                 4     -0.157905  1 O  px         

 Vector   10  Occ=2.000000D+00  E=-5.990510D-01
              MO Center=  9.0D-01, -2.7D-01, -2.7D-01, r^2= 3.1D+00
   Bfn.  Coefficient  Atom+Function         Bfn.  Coefficient  Atom+Function  
  ----- ------------  ---------------      ----- ------------  ---------------
    30      0.306575  4 O  pz                 4     -0.269397  1 O  px         
     3      0.238474  1 O  s                 27     -0.225353  4 O  s          
    33      0.208638  4 O  pz                29     -0.207227  4 O  py         
     6     -0.197521  1 O  pz                44      0.175274  6 H  s          
     7     -0.170417  1 O  px                28     -0.166800  4 O  px         

 Vector   11  Occ=2.000000D+00  E=-5.785391D-01
              MO Center=  7.2D-01, -1.1D-01, -3.2D-01, r^2= 3.4D+00
   Bfn.  Coefficient  Atom+Function         Bfn.  Coefficient  Atom+Function  
  ----- ------------  ---------------      ----- ------------  ---------------
     4      0.314734  1 O  px                28     -0.265631  4 O  px         
    27     -0.239224  4 O  s                  7      0.211785  1 O  px         
    29     -0.205858  4 O  py                 3     -0.202089  1 O  s          
    31     -0.189108  4 O  px                 6      0.177551  1 O  pz         
    30      0.173982  4 O  pz         

 Vector   12  Occ=2.000000D+00  E=-5.391441D-01
              MO Center= -1.2D+00,  3.9D-01,  2.9D-01, r^2= 2.6D+00
   Bfn.  Coefficient  Atom+Function         Bfn.  Coefficient  Atom+Function  
  ----- ------------  ---------------      ----- ------------  ---------------
    53      0.363265  7 O  py                51     -0.296436  7 O  s          
     6      0.271720  1 O  pz                56      0.249584  7 O  py         
    54     -0.247895  7 O  pz                 9      0.207105  1 O  pz         
    68      0.206390  9 H  s                 57     -0.175903  7 O  pz         

 Vector   13  Occ=2.000000D+00  E=-5.168405D-01
              MO Center=  1.4D+00, -1.1D+00,  1.6D-01, r^2= 1.6D+00
   Bfn.  Coefficient  Atom+Function         Bfn.  Coefficient  Atom+Function  
  ----- ------------  ---------------      ----- ------------  ---------------
    28      0.487915  4 O  px                31      0.384177  4 O  px         
    30      0.334150  4 O  pz                33      0.257590  4 O  pz         

 Vector   14  Occ=2.000000D+00  E=-4.930598D-01
              MO Center= -2.7D-01,  7.8D-01, -5.2D-01, r^2= 2.2D+00
   Bfn.  Coefficient  Atom+Function         Bfn.  Coefficient  Atom+Function  
  ----- ------------  ---------------      ----- ------------  ---------------
     6      0.414916  1 O  pz                 9      0.330225  1 O  pz         
     4     -0.327324  1 O  px                54      0.255583  7 O  pz         
     7     -0.245892  1 O  px                57      0.184026  7 O  pz         
    53     -0.151068  7 O  py         

 Vector   15  Occ=2.000000D+00  E=-4.599174D-01
              MO Center= -1.8D+00,  3.4D-01,  6.7D-01, r^2= 6.7D-01
   Bfn.  Coefficient  Atom+Function         Bfn.  Coefficient  Atom+Function  
  ----- ------------  ---------------      ----- ------------  ---------------
    53      0.395172  7 O  py                54      0.395177  7 O  pz         
    56      0.318023  7 O  py                57      0.317264  7 O  pz         
    52      0.276303  7 O  px                55      0.223394  7 O  px         

 Vector   16  Occ=0.000000D+00  E= 1.558484D-01
              MO Center=  8.7D-01, -6.8D-01,  4.0D-01, r^2= 5.5D+00
   Bfn.  Coefficient  Atom+Function         Bfn.  Coefficient  Atom+Function  
  ----- ------------  ---------------      ----- ------------  ---------------
    27      0.791046  4 O  s                 45     -0.636954  6 H  s          
    40     -0.630146  5 H  s                 16     -0.554071  2 H  s          
     3      0.430787  1 O  s                 69     -0.272238  9 H  s          
    51      0.244780  7 O  s                 33      0.158604  4 O  pz         
    31     -0.155628  4 O  px         

 Vector   17  Occ=0.000000D+00  E= 2.067534D-01
              MO Center=  3.8D-01, -1.5D-01,  8.3D-02, r^2= 8.8D+00
   Bfn.  Coefficient  Atom+Function         Bfn.  Coefficient  Atom+Function  
  ----- ------------  ---------------      ----- ------------  ---------------
    40     -0.939516  5 H  s                 16      0.906125  2 H  s          
    69      0.607256  9 H  s                 27      0.529382  4 O  s          
     3     -0.519929  1 O  s                 51     -0.386840  7 O  s          
    32     -0.292841  4 O  py                 8     -0.178719  1 O  py         
     9     -0.177920  1 O  pz                29     -0.156891  4 O  py         

 Vector   18  Occ=0.000000D+00  E= 2.343596D-01
              MO Center= -1.5D+00,  1.2D+00,  3.7D-01, r^2= 5.9D+00
   Bfn.  Coefficient  Atom+Function         Bfn.  Coefficient  Atom+Function  
  ----- ------------  ---------------      ----- ------------  ---------------
    69      1.183392  9 H  s                 16     -0.874526  2 H  s          
    51     -0.714960  7 O  s                  3      0.470393  1 O  s          
    55      0.312256  7 O  px                45      0.238093  6 H  s          
    56     -0.223168  7 O  py                 7      0.180471  1 O  px         
     8      0.170826  1 O  py         

 Vector   19  Occ=0.000000D+00  E= 2.490702D-01
              MO Center=  8.3D-01, -1.1D+00,  7.8D-01, r^2= 5.2D+00
   Bfn.  Coefficient  Atom+Function         Bfn.  Coefficient  Atom+Function  
  ----- ------------  ---------------      ----- ------------  ---------------
    45      1.463809  6 H  s                 40     -1.071768  5 H  s          
    33     -0.426556  4 O  pz                69     -0.409469  9 H  s          
    21     -0.402592  3 H  s                 32     -0.402536  4 O  py         
     3      0.334116  1 O  s                 30     -0.211399  4 O  pz         
    16     -0.208186  2 H  s                 51      0.202487  7 O  s          

 Vector   20  Occ=0.000000D+00  E= 3.184349D-01
              MO Center=  6.2D-01, -6.7D-02, -8.8D-01, r^2= 3.9D+00
   Bfn.  Coefficient  Atom+Function         Bfn.  Coefficient  Atom+Function  
  ----- ------------  ---------------      ----- ------------  ---------------
    21      1.735694  3 H  s                 16     -0.934794  2 H  s          
     8      0.591518  1 O  py                 3     -0.527298  1 O  s          
    40     -0.465407  5 H  s                 69     -0.303179  9 H  s          
    32     -0.298504  4 O  py                64      0.292407  8 H  s          
     5      0.253000  1 O  py         

 Vector   21  Occ=0.000000D+00  E= 3.998433D-01
              MO Center= -1.1D+00,  6.9D-01, -1.8D-01, r^2= 3.8D+00
   Bfn.  Coefficient  Atom+Function         Bfn.  Coefficient  Atom+Function  
  ----- ------------  ---------------      ----- ------------  ---------------
    64      2.138861  8 H  s                 69     -0.940301  9 H  s          
    21     -0.678332  3 H  s                 51     -0.608076  7 O  s          
    55     -0.557700  7 O  px                57      0.403503  7 O  pz         
     7      0.387274  1 O  px                 4      0.221089  1 O  px         
    16     -0.204481  2 H  s                 52     -0.198545  7 O  px         

 Vector   22  Occ=0.000000D+00  E= 7.232177D-01
              MO Center=  8.8D-01, -6.0D-02, -2.7D-01, r^2= 3.6D+00
   Bfn.  Coefficient  Atom+Function         Bfn.  Coefficient  Atom+Function  
  ----- ------------  ---------------      ----- ------------  ---------------
    15      0.751354  2 H  s                 21      0.668213  3 H  s          
    44      0.659025  6 H  s                 20     -0.614091  3 H  s          
    39     -0.596535  5 H  s                 16     -0.479689  2 H  s          
    45     -0.468045  6 H  s                 32     -0.382975  4 O  py         
    40      0.339773  5 H  s                  8     -0.244782  1 O  py         

 Vector   23  Occ=0.000000D+00  E= 7.715756D-01
              MO Center=  1.9D-01, -1.0D-01,  2.6D-01, r^2= 4.6D+00
   Bfn.  Coefficient  Atom+Function         Bfn.  Coefficient  Atom+Function  
  ----- ------------  ---------------      ----- ------------  ---------------
    44      0.813395  6 H  s                 45     -0.595438  6 H  s          
    20      0.557578  3 H  s                 68     -0.525649  9 H  s          
    15     -0.494608  2 H  s                 16      0.460896  2 H  s          
    63      0.430374  8 H  s                 64     -0.375850  8 H  s          
    69      0.343037  9 H  s                 21     -0.293801  3 H  s          

 Vector   24  Occ=0.000000D+00  E= 8.017772D-01
              MO Center=  3.5D-02, -5.0D-01,  3.1D-02, r^2= 5.2D+00
   Bfn.  Coefficient  Atom+Function         Bfn.  Coefficient  Atom+Function  
  ----- ------------  ---------------      ----- ------------  ---------------
    64      0.912780  8 H  s                 63     -0.820910  8 H  s          
    39     -0.804027  5 H  s                 40      0.619222  5 H  s          
    21     -0.493624  3 H  s                 20      0.474299  3 H  s          
    69     -0.224057  9 H  s                 51     -0.195582  7 O  s          
     8      0.184672  1 O  py                42      0.178978  5 H  py         

 Vector   25  Occ=0.000000D+00  E= 8.266551D-01
              MO Center=  4.1D-01, -7.9D-01,  3.0D-01, r^2= 4.9D+00
   Bfn.  Coefficient  Atom+Function         Bfn.  Coefficient  Atom+Function  
  ----- ------------  ---------------      ----- ------------  ---------------
    64      0.826706  8 H  s                 39      0.696273  5 H  s          
    63     -0.688145  8 H  s                 44      0.549412  6 H  s          
    45     -0.481311  6 H  s                 40     -0.476796  5 H  s          
    27      0.293820  4 O  s                 15      0.274877  2 H  s          
    16     -0.223394  2 H  s                 42     -0.218862  5 H  py         


 center of mass
 --------------
 x =  -0.00544915 y =   0.00142067 z =  -0.01813613

 moments of inertia (a.u.)
 ------------------
         291.504437312653         164.431396597219          71.321857861343
         164.431396597219         489.403716782898          65.378667371810
          71.321857861343          65.378667371810         589.414940284129

  Mulliken analysis of the total density
  --------------------------------------

    Atom       Charge   Shell Charges
 -----------   ------   -------------------------------------------------------
    1 O    8     8.34   2.00  0.83  0.84  2.82  1.83  0.01
    2 H    1     0.83   0.67  0.07  0.08
    3 H    1     0.81   0.65  0.08  0.09
    4 O    8     8.34   2.00  0.83  0.85  2.81  1.84  0.01
    5 H    1     0.82   0.67  0.06  0.08
    6 H    1     0.81   0.65  0.08  0.08
    7 O    8     8.39   2.00  0.83  0.84  2.82  1.89  0.01
    8 H    1     0.81   0.63  0.09  0.09
    9 H    1     0.85   0.69  0.08  0.08

       Multipole analysis of the density wrt the origin
       ------------------------------------------------

     L   x y z        total         open         nuclear
     -   - - -        -----         ----         -------
     0   0 0 0     -0.000000      0.000000     30.000000

     1   1 0 0      0.411473      0.000000     -0.000000
     1   0 1 0     -0.145922      0.000000      0.000000
     1   0 0 1      0.356080      0.000000     -0.000000

     2   2 0 0    -14.466979      0.000000    219.829152
     2   1 1 0     -2.100848      0.000000    -93.425088
     2   1 0 1      1.458435      0.000000    -38.016437
     2   0 2 0     -8.733552      0.000000    115.222199
     2   0 1 1      0.838174      0.000000    -35.468939
     2   0 0 2    -15.723403      0.000000     52.494073


 Parallel integral file used      51 records with       0 large values

                              NWChem Gradients Module
                              -----------------------



  wavefunction    =   RHF     



                         RHF ENERGY GRADIENTS

    atom               coordinates                        gradient
                 x          y          z           x          y          z
   1 O       0.410057   1.887029  -1.862505   -0.031670   0.001982  -0.016490
   2 H       1.456431   2.938976  -0.769987    0.016404   0.014178   0.018375
   3 H       1.263617   0.260278  -1.769389    0.009332  -0.017354   0.001929
   4 O       3.049724  -2.474271   0.410013    0.023930  -0.000562  -0.033874
   5 H       2.781132  -4.274537   0.301752   -0.000442  -0.019824  -0.003854
   6 H       2.129072  -1.903423   1.949325   -0.021025   0.019377   0.037669
   7 O      -3.496898   0.596919   1.328956   -0.001273  -0.019739   0.018333
   8 H      -2.367276   1.227301  -0.009555    0.022207   0.010334  -0.023101
   9 H      -4.966036   1.673989   1.286142   -0.017462   0.011609   0.001012

                 ----------------------------------------
                 |  Time  |  1-e(secs)   |  2-e(secs)   |
                 ----------------------------------------
                 |  CPU   |       0.01   |       0.64   |
                 ----------------------------------------
                 |  WALL  |       0.01   |       0.65   |
                 ----------------------------------------

 Task  times  cpu:        1.8s     wall:        1.9s


                                NWChem Input Module
                                -------------------


 Summary of allocated global arrays
-----------------------------------
  No active global arrays



                         GA Statistics for process    0
                         ------------------------------

       create   destroy   get      put      acc     scatter   gather  read&inc
calls:  249      249     8485     3844     3497        0        0      141     
number of processes/call 0.00e+00 0.00e+00 0.00e+00 0.00e+00 0.00e+00
bytes total:             1.41e+07 8.42e+06 2.03e+06 0.00e+00 0.00e+00 1.13e+03
bytes remote:            0.00e+00 0.00e+00 0.00e+00 0.00e+00 0.00e+00 0.00e+00
Max memory consumed for GA by this process: 539136 bytes

MA_summarize_allocated_blocks: starting scan ...
MA_summarize_allocated_blocks: scan completed: 0 heap blocks, 0 stack blocks
MA usage statistics:

	allocation statistics:
					      heap	     stack
					      ----	     -----
	current number of blocks	         0	         0
	maximum number of blocks	        18	        28
	current total bytes		         0	         0
	maximum total bytes		  57703096	  26171384
	maximum total K-bytes		     57704	     26172
	maximum total M-bytes		        58	        27


                                     CITATION
                                     --------
                Please cite the following reference when publishing
                           results obtained with NWChem:

          E. Aprà, E. J. Bylaska, W. A. de Jong, N. Govind, K. Kowalski,
       T. P. Straatsma, M. Valiev, H. J. J. van Dam, Y. Alexeev, J. Anchell,
       V. Anisimov, F. W. Aquino, R. Atta-Fynn, J. Autschbach, N. P. Bauman,
     J. C. Becca, D. E. Bernholdt, K. Bhaskaran-Nair, S. Bogatko, P. Borowski,
        J. Boschen, J. Brabec, A. Bruner, E. Cauët, Y. Chen, G. N. Chuev,
      C. J. Cramer, J. Daily, M. J. O. Deegan, T. H. Dunning Jr., M. Dupuis,
   K. G. Dyall, G. I. Fann, S. A. Fischer, A. Fonari, H. Früchtl, L. Gagliardi,
      J. Garza, N. Gawande, S. Ghosh, K. Glaesemann, A. W. Götz, J. Hammond,
       V. Helms, E. D. Hermes, K. Hirao, S. Hirata, M. Jacquelin, L. Jensen,
   B. G. Johnson, H. Jónsson, R. A. Kendall, M. Klemm, R. Kobayashi, V. Konkov,
      S. Krishnamoorthy, M. Krishnan, Z. Lin, R. D. Lins, R. J. Littlefield,
      A. J. Logsdail, K. Lopata, W. Ma, A. V. Marenich, J. Martin del Campo,
   D. Mejia-Rodriguez, J. E. Moore, J. M. Mullin, T. Nakajima, D. R. Nascimento,
    J. A. Nichols, P. J. Nichols, J. Nieplocha, A. Otero-de-la-Roza, B. Palmer,
    A. Panyala, T. Pirojsirikul, B. Peng, R. Peverati, J. Pittner, L. Pollack,
   R. M. Richard, P. Sadayappan, G. C. Schatz, W. A. Shelton, D. W. Silverstein,
   D. M. A. Smith, T. A. Soares, D. Song, M. Swart, H. L. Taylor, G. S. Thomas,
            V. Tipparaju, D. G. Truhlar, K. Tsemekhman, T. Van Voorhis,
     Á. Vázquez-Mayagoitia, P. Verma, O. Villa, A. Vishnu, K. D. Vogiatzis,
        D. Wang, J. H. Weare, M. J. Williamson, T. L. Windus, K. Woliński,
        A. T. Wong, Q. Wu, C. Yang, Q. Yu, M. Zacharias, Z. Zhang, Y. Zhao,
                                and R. J. Harrison
                        "NWChem: Past, present, and future
                         J. Chem. Phys. 152, 184102 (2020)
                               doi:10.1063/5.0004997

                                      AUTHORS
                                      -------
     E. Apra, E. J. Bylaska, N. Govind, K. Kowalski, M. Valiev, W. A. de Jong,
      T. P. Straatsma, H. J. J. van Dam, D. Wang, T. L. Windus, N. P. Bauman,
       A. Panyala, J. Hammond, J. Autschbach, K. Bhaskaran-Nair, J. Brabec,
    K. Lopata, S. A. Fischer, S. Krishnamoorthy, M. Jacquelin, W. Ma, M. Klemm,
       O. Villa, Y. Chen, V. Anisimov, F. Aquino, S. Hirata, M. T. Hackler,
           Eric Hermes, L. Jensen, J. E. Moore, J. C. Becca, V. Konjkov,
            D. Mejia-Rodriguez, T. Risthaus, M. Malagoli, A. Marenich,
   A. Otero-de-la-Roza, J. Mullin, P. Nichols, R. Peverati, J. Pittner, Y. Zhao,
        P.-D. Fan, A. Fonari, M. J. Williamson, R. J. Harrison, J. R. Rehr,
      M. Dupuis, D. Silverstein, D. M. A. Smith, J. Nieplocha, V. Tipparaju,
      M. Krishnan, B. E. Van Kuiken, A. Vazquez-Mayagoitia, M. Swart, Q. Wu,
   T. Van Voorhis, A. A. Auer, M. Nooijen, L. D. Crosby, E. Brown, G. Cisneros,
     G. I. Fann, H. Fruchtl, J. Garza, K. Hirao, R. A. Kendall, J. A. Nichols,
       K. Tsemekhman, K. Wolinski, J. Anchell, D. E. Bernholdt, P. Borowski,
       T. Clark, D. Clerc, H. Dachsel, M. J. O. Deegan, K. Dyall, D. Elwood,
      E. Glendening, M. Gutowski, A. C. Hess, J. Jaffe, B. G. Johnson, J. Ju,
        R. Kobayashi, R. Kutteh, Z. Lin, R. Littlefield, X. Long, B. Meng,
      T. Nakajima, S. Niu, L. Pollack, M. Rosing, K. Glaesemann, G. Sandrone,
      M. Stave, H. Taylor, G. Thomas, J. H. van Lenthe, A. T. Wong, Z. Zhang.

 Total times  cpu:        1.8s     wall:        1.9s
