 argument  1 = nwchem/input_3_17_at_worker_4.nw



============================== echo of input deck ==============================
echo
memory 1000 mb
geometry noautosym noautoz
O -0.64071556 -0.48854013 1.6410419
H -0.19915392 0.37247798 1.5285638
H -1.54433112 -0.32408724 1.298356
O 0.57630762 -1.69154092 -0.42866929
H 0.43417462 -2.64420081 -0.48595869
H 0.08911917 -1.3894609 0.38589939
O 2.81159896 -0.10395953 -0.18689424
H 3.46294039 -0.4517338 0.43482057
H 2.1584952 -0.82915775 -0.30211113
end
basis spherical
 * library cc-pvdz
end
task scf gradient
================================================================================


                                         
                                         


             Northwest Computational Chemistry Package (NWChem) 7.0.2
             --------------------------------------------------------


                    Environmental Molecular Sciences Laboratory
                       Pacific Northwest National Laboratory
                                Richland, WA 99352

                              Copyright (c) 1994-2020
                       Pacific Northwest National Laboratory
                            Battelle Memorial Institute

             NWChem is an open-source computational chemistry package
                        distributed under the terms of the
                      Educational Community License (ECL) 2.0
             A copy of the license is included with this distribution
                              in the LICENSE.TXT file

                                  ACKNOWLEDGMENT
                                  --------------

            This software and its documentation were developed at the
            EMSL at Pacific Northwest National Laboratory, a multiprogram
            national laboratory, operated for the U.S. Department of Energy
            by Battelle under Contract Number DE-AC05-76RL01830. Support
            for this work was provided by the Department of Energy Office
            of Biological and Environmental Research, Office of Basic
            Energy Sciences, and the Office of Advanced Scientific Computing.


           Job information
           ---------------

    hostname        = pop-os
    program         = nwchem
    date            = Thu Jul  8 18:19:52 2021

    compiled        = Wed_Jan_06_19:48:08_2021
    source          = /build/nwchem-ksKH2r/nwchem-7.0.2
    nwchem branch   = 7.0.2
    nwchem revision = N/A
    ga revision     = 5.7.1
    use scalapack   = T
    input           = nwchem/input_3_17_at_worker_4.nw
    prefix          = input_3_17_at_worker_4.
    data base       = ./input_3_17_at_worker_4.db
    status          = startup
    nproc           =        1
    time left       =     -1s



           Memory information
           ------------------

    heap     =   32767996 doubles =    250.0 Mbytes
    stack    =   32768001 doubles =    250.0 Mbytes
    global   =   65536000 doubles =    500.0 Mbytes (distinct from heap & stack)
    total    =  131071997 doubles =   1000.0 Mbytes
    verify   = yes
    hardfail = no 


           Directory information
           ---------------------

  0 permanent = .
  0 scratch   = .




                                NWChem Input Module
                                -------------------



 Scaling coordinates for geometry "geometry" by  1.889725989
 (inverse scale =  0.529177249)



                             Geometry "geometry" -> ""
                             -------------------------

 Output coordinates in angstroms (scale by  1.889725989 to convert to a.u.)

  No.       Tag          Charge          X              Y              Z
 ---- ---------------- ---------- -------------- -------------- --------------
    1 O                    8.0000    -1.52000798     0.29607611     1.27226200
    2 H                    1.0000    -1.07844634     1.15709422     1.15978390
    3 H                    1.0000    -2.42362354     0.46052900     0.92957610
    4 O                    8.0000    -0.30298480    -0.90692468    -0.79744919
    5 H                    1.0000    -0.44511780    -1.85958457    -0.85473859
    6 H                    1.0000    -0.79017325    -0.60484466     0.01711949
    7 O                    8.0000     1.93230654     0.68065671    -0.55567414
    8 H                    1.0000     2.58364797     0.33288244     0.06604067
    9 H                    1.0000     1.27920278    -0.04454151    -0.67089103

      Atomic Mass 
      ----------- 

      O                 15.994910
      H                  1.007825


 Effective nuclear repulsion energy (a.u.)      79.8294473323

            Nuclear Dipole moment (a.u.) 
            ----------------------------
        X                 Y               Z
 ---------------- ---------------- ----------------
     0.0000000000    -0.0000000000     0.0000000000


            XYZ format geometry
            -------------------
     9
 geometry
 O                    -1.52000798     0.29607611     1.27226200
 H                    -1.07844634     1.15709422     1.15978390
 H                    -2.42362354     0.46052900     0.92957610
 O                    -0.30298480    -0.90692468    -0.79744919
 H                    -0.44511780    -1.85958457    -0.85473859
 H                    -0.79017325    -0.60484466     0.01711949
 O                     1.93230654     0.68065671    -0.55567414
 H                     2.58364797     0.33288244     0.06604067
 H                     1.27920278    -0.04454151    -0.67089103

 ==============================================================================
                                internuclear distances
 ------------------------------------------------------------------------------
       center one      |      center two      | atomic units |  angstroms
 ------------------------------------------------------------------------------
    2 H                |   1 O                |     1.84089  |     0.97416
    3 H                |   1 O                |     1.85251  |     0.98031
    5 H                |   4 O                |     1.82341  |     0.96491
    6 H                |   4 O                |     1.88227  |     0.99606
    8 H                |   7 O                |     1.82407  |     0.96526
    9 H                |   7 O                |     1.85707  |     0.98272
 ------------------------------------------------------------------------------
                         number of included internuclear distances:          6
 ==============================================================================



 ==============================================================================
                                 internuclear angles
 ------------------------------------------------------------------------------
        center 1       |       center 2       |       center 3       |  degrees
 ------------------------------------------------------------------------------
    2 H                |   1 O                |   3 H                |   103.25
    5 H                |   4 O                |   6 H                |   106.02
    8 H                |   7 O                |   9 H                |   104.96
 ------------------------------------------------------------------------------
                            number of included internuclear angles:          3
 ==============================================================================





 Summary of "ao basis" -> "" (spherical)
 ------------------------------------------------------------------------------
       Tag                 Description            Shells   Functions and Types
 ---------------- ------------------------------  ------  ---------------------
 *                          cc-pvdz                   on all atoms 


                      Basis "ao basis" -> "ao basis" (spherical)
                      -----
  O (Oxygen)
  ----------
            Exponent  Coefficients 
       -------------- ---------------------------------------------------------
  1 S  1.17200000E+04  0.000710
  1 S  1.75900000E+03  0.005470
  1 S  4.00800000E+02  0.027837
  1 S  1.13700000E+02  0.104800
  1 S  3.70300000E+01  0.283062
  1 S  1.32700000E+01  0.448719
  1 S  5.02500000E+00  0.270952
  1 S  1.01300000E+00  0.015458

  2 S  1.17200000E+04 -0.000160
  2 S  1.75900000E+03 -0.001263
  2 S  4.00800000E+02 -0.006267
  2 S  1.13700000E+02 -0.025716
  2 S  3.70300000E+01 -0.070924
  2 S  1.32700000E+01 -0.165411
  2 S  5.02500000E+00 -0.116955
  2 S  1.01300000E+00  0.557368

  3 S  3.02300000E-01  1.000000

  4 P  1.77000000E+01  0.043018
  4 P  3.85400000E+00  0.228913
  4 P  1.04600000E+00  0.508728

  5 P  2.75300000E-01  1.000000

  6 D  1.18500000E+00  1.000000

  H (Hydrogen)
  ------------
            Exponent  Coefficients 
       -------------- ---------------------------------------------------------
  1 S  1.30100000E+01  0.019685
  1 S  1.96200000E+00  0.137977
  1 S  4.44600000E-01  0.478148

  2 S  1.22000000E-01  1.000000

  3 P  7.27000000E-01  1.000000



 Summary of "ao basis" -> "ao basis" (spherical)
 ------------------------------------------------------------------------------
       Tag                 Description            Shells   Functions and Types
 ---------------- ------------------------------  ------  ---------------------
 O                          cc-pvdz                  6       14   3s2p1d
 H                          cc-pvdz                  3        5   2s1p


                                 NWChem SCF Module
                                 -----------------



  ao basis        = "ao basis"
  functions       =    72
  atoms           =     9
  closed shells   =    15
  open shells     =     0
  charge          =   0.00
  wavefunction    = RHF 
  input vectors   = atomic
  output vectors  = ./input_3_17_at_worker_4.movecs
  use symmetry    = F
  symmetry adapt  = F


 Summary of "ao basis" -> "ao basis" (spherical)
 ------------------------------------------------------------------------------
       Tag                 Description            Shells   Functions and Types
 ---------------- ------------------------------  ------  ---------------------
 O                          cc-pvdz                  6       14   3s2p1d
 H                          cc-pvdz                  3        5   2s1p



 Forming initial guess at       0.1s


      Superposition of Atomic Density Guess
      -------------------------------------

 Sum of atomic energies:        -227.28668731

      Non-variational initial energy
      ------------------------------

 Total energy =    -227.813846
 1-e energy   =    -470.000820
 2-e energy   =     162.357527
 HOMO         =      -0.460391
 LUMO         =       0.057664


 Starting SCF solution at       0.3s



 ----------------------------------------------
         Quadratically convergent ROHF

 Convergence threshold     :          1.000E-04
 Maximum no. of iterations :           30
 Final Fock-matrix accuracy:          1.000E-07
 ----------------------------------------------


 Integral file          = ./input_3_17_at_worker_4.aoints.0
 Record size in doubles =  65536        No. of integs per rec  =  43688
 Max. records in memory =    110        Max. records in file   = 400270
 No. of bits per label  =      8        No. of bits per value  =     64


 #quartets = 1.752D+05 #integrals = 2.272D+06 #direct =  0.0% #cached =100.0%


              iter       energy          gnorm     gmax       time
             ----- ------------------- --------- --------- --------
                 1     -228.0017948155  1.33D+00  2.12D-01      0.8
                 2     -228.0856587569  2.92D-01  7.74D-02      0.9
                 3     -228.0925554820  2.45D-02  3.98D-03      1.0
                 4     -228.0926105257  4.83D-04  1.10D-04      1.2
                 5     -228.0926105440  2.44D-06  5.10D-07      1.4


       Final RHF  results 
       ------------------ 

         Total SCF energy =   -228.092610543996
      One-electron energy =   -474.031095941848
      Two-electron energy =    166.109038065511
 Nuclear repulsion energy =     79.829447332341

        Time for solution =      1.1s


             Final eigenvalues
             -----------------

              1      
    1  -20.6019
    2  -20.5455
    3  -20.5056
    4   -1.3794
    5   -1.3251
    6   -1.2850
    7   -0.7325
    8   -0.7051
    9   -0.6620
   10   -0.6150
   11   -0.5695
   12   -0.5302
   13   -0.5177
   14   -0.4821
   15   -0.4499
   16    0.1525
   17    0.2084
   18    0.2262
   19    0.2490
   20    0.3781
   21    0.4173
   22    0.7263
   23    0.7606
   24    0.8061
   25    0.8156

                       ROHF Final Molecular Orbital Analysis
                       -------------------------------------

 Vector    4  Occ=2.000000D+00  E=-1.379373D+00
              MO Center= -1.5D+00,  3.8D-01,  1.1D+00, r^2= 7.0D-01
   Bfn.  Coefficient  Atom+Function         Bfn.  Coefficient  Atom+Function  
  ----- ------------  ---------------      ----- ------------  ---------------
     2      0.438901  1 O  s                  3      0.387320  1 O  s          
    15      0.179898  2 H  s                 20      0.177731  3 H  s          

 Vector    5  Occ=2.000000D+00  E=-1.325103D+00
              MO Center= -3.4D-01, -9.1D-01, -6.4D-01, r^2= 9.7D-01
   Bfn.  Coefficient  Atom+Function         Bfn.  Coefficient  Atom+Function  
  ----- ------------  ---------------      ----- ------------  ---------------
    26      0.429937  4 O  s                 27      0.389302  4 O  s          
    39      0.182912  5 H  s                 44      0.160269  6 H  s          

 Vector    6  Occ=2.000000D+00  E=-1.285032D+00
              MO Center=  1.9D+00,  4.9D-01, -4.8D-01, r^2= 7.7D-01
   Bfn.  Coefficient  Atom+Function         Bfn.  Coefficient  Atom+Function  
  ----- ------------  ---------------      ----- ------------  ---------------
    50      0.436069  7 O  s                 51      0.386669  7 O  s          
    63      0.189641  8 H  s                 68      0.171817  9 H  s          

 Vector    7  Occ=2.000000D+00  E=-7.324877D-01
              MO Center= -1.6D+00,  4.7D-01,  1.2D+00, r^2= 8.4D-01
   Bfn.  Coefficient  Atom+Function         Bfn.  Coefficient  Atom+Function  
  ----- ------------  ---------------      ----- ------------  ---------------
     4      0.435923  1 O  px                20     -0.318399  3 H  s          
    15      0.312746  2 H  s                  5      0.220922  1 O  py         
     7      0.211343  1 O  px         

 Vector    8  Occ=2.000000D+00  E=-7.050658D-01
              MO Center= -5.1D-01, -8.4D-01, -4.2D-01, r^2= 1.6D+00
   Bfn.  Coefficient  Atom+Function         Bfn.  Coefficient  Atom+Function  
  ----- ------------  ---------------      ----- ------------  ---------------
    29      0.360121  4 O  py                39     -0.299075  5 H  s          
    44      0.288063  6 H  s                 30      0.252579  4 O  pz         
    32      0.168080  4 O  py                 5     -0.158306  1 O  py         

 Vector    9  Occ=2.000000D+00  E=-6.619858D-01
              MO Center=  1.5D+00,  2.8D-01, -4.5D-01, r^2= 1.9D+00
   Bfn.  Coefficient  Atom+Function         Bfn.  Coefficient  Atom+Function  
  ----- ------------  ---------------      ----- ------------  ---------------
    52      0.372081  7 O  px                68     -0.294355  9 H  s          
    63      0.289865  8 H  s                 54      0.200729  7 O  pz         
    55      0.172725  7 O  px                28     -0.161112  4 O  px         

 Vector   10  Occ=2.000000D+00  E=-6.149605D-01
              MO Center= -1.3D+00,  1.5D-01,  1.0D+00, r^2= 1.8D+00
   Bfn.  Coefficient  Atom+Function         Bfn.  Coefficient  Atom+Function  
  ----- ------------  ---------------      ----- ------------  ---------------
     5      0.425186  1 O  py                 3     -0.315555  1 O  s          
     8      0.278583  1 O  py                 6     -0.202671  1 O  pz         
    20      0.196206  3 H  s                  4     -0.192937  1 O  px         
    15      0.184987  2 H  s                 29      0.158741  4 O  py         

 Vector   11  Occ=2.000000D+00  E=-5.695137D-01
              MO Center= -2.5D-01, -3.3D-01, -1.8D-01, r^2= 3.3D+00
   Bfn.  Coefficient  Atom+Function         Bfn.  Coefficient  Atom+Function  
  ----- ------------  ---------------      ----- ------------  ---------------
     6      0.314325  1 O  pz                29      0.276613  4 O  py         
    27      0.267209  4 O  s                  9      0.238555  1 O  pz         
    28      0.211592  4 O  px                30     -0.203375  4 O  pz         
    39     -0.196048  5 H  s                 32      0.171025  4 O  py         
    63      0.156573  8 H  s          

 Vector   12  Occ=2.000000D+00  E=-5.302011D-01
              MO Center=  6.6D-01,  4.0D-01, -5.6D-02, r^2= 4.1D+00
   Bfn.  Coefficient  Atom+Function         Bfn.  Coefficient  Atom+Function  
  ----- ------------  ---------------      ----- ------------  ---------------
    53      0.362848  7 O  py                 6      0.317219  1 O  pz         
    51      0.267177  7 O  s                 56      0.252329  7 O  py         
     9      0.246812  1 O  pz                28     -0.190995  4 O  px         
    54     -0.191588  7 O  pz                63     -0.175583  8 H  s          

 Vector   13  Occ=2.000000D+00  E=-5.177350D-01
              MO Center= -4.3D-01, -1.3D-01,  3.6D-02, r^2= 3.5D+00
   Bfn.  Coefficient  Atom+Function         Bfn.  Coefficient  Atom+Function  
  ----- ------------  ---------------      ----- ------------  ---------------
    30      0.373373  4 O  pz                 6      0.351528  1 O  pz         
     9      0.280949  1 O  pz                33      0.273090  4 O  pz         
    53     -0.210175  7 O  py                 5      0.151100  1 O  py         
    56     -0.150308  7 O  py         

 Vector   14  Occ=2.000000D+00  E=-4.820686D-01
              MO Center=  1.6D-01, -5.6D-01, -7.1D-01, r^2= 2.0D+00
   Bfn.  Coefficient  Atom+Function         Bfn.  Coefficient  Atom+Function  
  ----- ------------  ---------------      ----- ------------  ---------------
    28      0.488187  4 O  px                31      0.384670  4 O  px         
    53      0.270538  7 O  py                30      0.262113  4 O  pz         
    33      0.216683  4 O  pz                56      0.195172  7 O  py         

 Vector   15  Occ=2.000000D+00  E=-4.499046D-01
              MO Center=  1.9D+00,  6.4D-01, -5.5D-01, r^2= 6.9D-01
   Bfn.  Coefficient  Atom+Function         Bfn.  Coefficient  Atom+Function  
  ----- ------------  ---------------      ----- ------------  ---------------
    54      0.479340  7 O  pz                57      0.382819  7 O  pz         
    52     -0.341096  7 O  px                55     -0.279188  7 O  px         
    53      0.203731  7 O  py                56      0.161725  7 O  py         

 Vector   16  Occ=0.000000D+00  E= 1.525216D-01
              MO Center= -1.6D+00,  4.4D-01,  6.8D-01, r^2= 5.0D+00
   Bfn.  Coefficient  Atom+Function         Bfn.  Coefficient  Atom+Function  
  ----- ------------  ---------------      ----- ------------  ---------------
     3      0.862311  1 O  s                 21     -0.826989  3 H  s          
    16     -0.629093  2 H  s                 40     -0.464979  5 H  s          
    27      0.321596  4 O  s                  8      0.238890  1 O  py         
    64     -0.192749  8 H  s                 51      0.186786  7 O  s          
     7     -0.159072  1 O  px         

 Vector   17  Occ=0.000000D+00  E= 2.083812D-01
              MO Center= -2.4D-01, -9.7D-01, -2.6D-01, r^2= 7.4D+00
   Bfn.  Coefficient  Atom+Function         Bfn.  Coefficient  Atom+Function  
  ----- ------------  ---------------      ----- ------------  ---------------
    40      1.049819  5 H  s                 21     -0.685077  3 H  s          
    27     -0.667711  4 O  s                 64      0.615148  8 H  s          
    51     -0.422139  7 O  s                  3      0.387652  1 O  s          
    32      0.324255  4 O  py                 7     -0.207221  1 O  px         
    29      0.154137  4 O  py         

 Vector   18  Occ=0.000000D+00  E= 2.261737D-01
              MO Center= -1.6D-01,  1.5D-01,  4.0D-01, r^2= 8.0D+00
   Bfn.  Coefficient  Atom+Function         Bfn.  Coefficient  Atom+Function  
  ----- ------------  ---------------      ----- ------------  ---------------
    16      1.086526  2 H  s                 21     -0.849752  3 H  s          
    40     -0.719133  5 H  s                 64      0.720849  8 H  s          
    51     -0.431758  7 O  s                 27      0.386204  4 O  s          
     7     -0.370959  1 O  px                 8     -0.255305  1 O  py         
    32     -0.231491  4 O  py                 4     -0.156895  1 O  px         

 Vector   19  Occ=0.000000D+00  E= 2.490006D-01
              MO Center=  6.3D-01,  4.4D-01,  5.0D-01, r^2= 8.4D+00
   Bfn.  Coefficient  Atom+Function         Bfn.  Coefficient  Atom+Function  
  ----- ------------  ---------------      ----- ------------  ---------------
    64     -1.059229  8 H  s                 16      1.027598  2 H  s          
    21     -0.833509  3 H  s                 51      0.585005  7 O  s          
    40      0.452369  5 H  s                  7     -0.367408  1 O  px         
     8     -0.245603  1 O  py                55      0.236013  7 O  px         
    57      0.213535  7 O  pz                45     -0.191816  6 H  s          

 Vector   20  Occ=0.000000D+00  E= 3.781038D-01
              MO Center=  3.2D-02, -4.9D-01, -1.8D-01, r^2= 4.8D+00
   Bfn.  Coefficient  Atom+Function         Bfn.  Coefficient  Atom+Function  
  ----- ------------  ---------------      ----- ------------  ---------------
    45      1.605945  6 H  s                 69      1.085549  9 H  s          
    40     -0.955120  5 H  s                 64     -0.642423  8 H  s          
    27     -0.521328  4 O  s                 32     -0.487591  4 O  py         
    16     -0.385806  2 H  s                 33     -0.374672  4 O  pz         
    55      0.344923  7 O  px                21     -0.270661  3 H  s          

 Vector   21  Occ=0.000000D+00  E= 4.173079D-01
              MO Center=  3.7D-01, -4.3D-01, -4.1D-01, r^2= 4.8D+00
   Bfn.  Coefficient  Atom+Function         Bfn.  Coefficient  Atom+Function  
  ----- ------------  ---------------      ----- ------------  ---------------
    69      1.848716  9 H  s                 45     -1.636823  6 H  s          
    64     -0.722891  8 H  s                 51     -0.584283  7 O  s          
    31     -0.445179  4 O  px                55      0.434566  7 O  px         
    21      0.354734  3 H  s                 27      0.346864  4 O  s          
    33      0.322830  4 O  pz                56      0.286976  7 O  py         

 Vector   22  Occ=0.000000D+00  E= 7.263304D-01
              MO Center= -1.4D+00,  4.6D-01,  9.3D-01, r^2= 2.6D+00
   Bfn.  Coefficient  Atom+Function         Bfn.  Coefficient  Atom+Function  
  ----- ------------  ---------------      ----- ------------  ---------------
    15      0.911252  2 H  s                 20     -0.881465  3 H  s          
    21      0.677282  3 H  s                 16     -0.643717  2 H  s          
     7     -0.375892  1 O  px                39     -0.278776  5 H  s          
    68      0.226554  9 H  s                  8     -0.220139  1 O  py         
     4     -0.190172  1 O  px         

 Vector   23  Occ=0.000000D+00  E= 7.606311D-01
              MO Center= -3.9D-01, -6.9D-01, -3.2D-01, r^2= 2.6D+00
   Bfn.  Coefficient  Atom+Function         Bfn.  Coefficient  Atom+Function  
  ----- ------------  ---------------      ----- ------------  ---------------
    45      1.273510  6 H  s                 44     -1.081747  6 H  s          
    69     -0.609868  9 H  s                 39      0.531081  5 H  s          
    40     -0.511196  5 H  s                 68      0.331985  9 H  s          
    32      0.261848  4 O  py                21     -0.235840  3 H  s          
     3     -0.217926  1 O  s                 20      0.211414  3 H  s          

 Vector   24  Occ=0.000000D+00  E= 8.061444D-01
              MO Center= -1.2D+00, -2.8D-01,  2.3D-01, r^2= 4.4D+00
   Bfn.  Coefficient  Atom+Function         Bfn.  Coefficient  Atom+Function  
  ----- ------------  ---------------      ----- ------------  ---------------
    39     -0.792616  5 H  s                 20      0.774382  3 H  s          
    21     -0.596812  3 H  s                 15      0.517444  2 H  s          
    40      0.433830  5 H  s                 45      0.401554  6 H  s          
    16     -0.298886  2 H  s                 27     -0.274311  4 O  s          
    32     -0.265306  4 O  py                68     -0.187394  9 H  s          

 Vector   25  Occ=0.000000D+00  E= 8.156238D-01
              MO Center=  1.4D+00,  2.3D-01, -3.8D-01, r^2= 3.2D+00
   Bfn.  Coefficient  Atom+Function         Bfn.  Coefficient  Atom+Function  
  ----- ------------  ---------------      ----- ------------  ---------------
    68      0.935582  9 H  s                 69     -0.882579  9 H  s          
    63     -0.793277  8 H  s                 64      0.652166  8 H  s          
    44      0.360002  6 H  s                 55      0.312281  7 O  px         
    45     -0.289945  6 H  s                 27      0.227891  4 O  s          
    20      0.221070  3 H  s                 21     -0.208924  3 H  s          


 center of mass
 --------------
 x =   0.03032668 y =   0.01936672 z =  -0.02243318

 moments of inertia (a.u.)
 ------------------
         256.786015476323         -64.164098847224         171.715938814767
         -64.164098847224         567.238716829269         -53.485937485907
         171.715938814767         -53.485937485907         506.814009685078

  Mulliken analysis of the total density
  --------------------------------------

    Atom       Charge   Shell Charges
 -----------   ------   -------------------------------------------------------
    1 O    8     8.32   2.00  0.84  0.84  2.82  1.81  0.01
    2 H    1     0.81   0.66  0.06  0.08
    3 H    1     0.81   0.66  0.07  0.08
    4 O    8     8.38   2.00  0.83  0.85  2.83  1.87  0.01
    5 H    1     0.84   0.68  0.07  0.08
    6 H    1     0.79   0.61  0.09  0.09
    7 O    8     8.38   2.00  0.83  0.84  2.82  1.88  0.01
    8 H    1     0.86   0.69  0.08  0.08
    9 H    1     0.81   0.63  0.09  0.09

       Multipole analysis of the density wrt the origin
       ------------------------------------------------

     L   x y z        total         open         nuclear
     -   - - -        -----         ----         -------
     0   0 0 0     -0.000000      0.000000     30.000000

     1   1 0 0     -1.129226      0.000000      0.000000
     1   0 1 0     -0.452962      0.000000     -0.000000
     1   0 0 1      0.750203      0.000000      0.000000

     2   2 0 0    -10.015129      0.000000    233.045367
     2   1 1 0     -3.545077      0.000000     31.656045
     2   1 0 1      2.221947      0.000000    -92.676563
     2   0 2 0    -11.139738      0.000000     58.834629
     2   0 1 1      2.728685      0.000000     32.762949
     2   0 0 2    -17.417354      0.000000     85.353201


 Parallel integral file used      52 records with       0 large values

                              NWChem Gradients Module
                              -----------------------



  wavefunction    =   RHF     



                         RHF ENERGY GRADIENTS

    atom               coordinates                        gradient
                 x          y          z           x          y          z
   1 O      -2.872399   0.559503   2.404227    0.024135  -0.033527   0.011272
   2 H      -2.037968   2.186591   2.191674    0.009108   0.022820  -0.004063
   3 H      -4.579984   0.870274   1.756644   -0.029064   0.005393  -0.013075
   4 O      -0.572558  -1.713839  -1.506960    0.021984   0.015417  -0.024603
   5 H      -0.841151  -3.514105  -1.615222   -0.002873  -0.020478  -0.001893
   6 H      -1.493211  -1.142991   0.032351   -0.020616   0.014410   0.032320
   7 O       3.651530   1.286255  -1.050072    0.002261   0.026286  -0.012613
   8 H       4.882387   0.629057   0.124799    0.014707  -0.006787   0.013954
   9 H       2.417343  -0.084171  -1.267800   -0.019642  -0.023535  -0.001298

                 ----------------------------------------
                 |  Time  |  1-e(secs)   |  2-e(secs)   |
                 ----------------------------------------
                 |  CPU   |       0.01   |       0.76   |
                 ----------------------------------------
                 |  WALL  |       0.01   |       0.76   |
                 ----------------------------------------

 Task  times  cpu:        2.2s     wall:        2.2s


                                NWChem Input Module
                                -------------------


 Summary of allocated global arrays
-----------------------------------
  No active global arrays



                         GA Statistics for process    0
                         ------------------------------

       create   destroy   get      put      acc     scatter   gather  read&inc
calls:  268      268     8617     3886     3533        0        0      141     
number of processes/call 0.00e+00 0.00e+00 0.00e+00 0.00e+00 0.00e+00
bytes total:             1.45e+07 8.66e+06 2.14e+06 0.00e+00 0.00e+00 1.13e+03
bytes remote:            0.00e+00 0.00e+00 0.00e+00 0.00e+00 0.00e+00 0.00e+00
Max memory consumed for GA by this process: 539136 bytes

MA_summarize_allocated_blocks: starting scan ...
MA_summarize_allocated_blocks: scan completed: 0 heap blocks, 0 stack blocks
MA usage statistics:

	allocation statistics:
					      heap	     stack
					      ----	     -----
	current number of blocks	         0	         0
	maximum number of blocks	        18	        28
	current total bytes		         0	         0
	maximum total bytes		  57703112	  26171432
	maximum total K-bytes		     57704	     26172
	maximum total M-bytes		        58	        27


                                     CITATION
                                     --------
                Please cite the following reference when publishing
                           results obtained with NWChem:

          E. Aprà, E. J. Bylaska, W. A. de Jong, N. Govind, K. Kowalski,
       T. P. Straatsma, M. Valiev, H. J. J. van Dam, Y. Alexeev, J. Anchell,
       V. Anisimov, F. W. Aquino, R. Atta-Fynn, J. Autschbach, N. P. Bauman,
     J. C. Becca, D. E. Bernholdt, K. Bhaskaran-Nair, S. Bogatko, P. Borowski,
        J. Boschen, J. Brabec, A. Bruner, E. Cauët, Y. Chen, G. N. Chuev,
      C. J. Cramer, J. Daily, M. J. O. Deegan, T. H. Dunning Jr., M. Dupuis,
   K. G. Dyall, G. I. Fann, S. A. Fischer, A. Fonari, H. Früchtl, L. Gagliardi,
      J. Garza, N. Gawande, S. Ghosh, K. Glaesemann, A. W. Götz, J. Hammond,
       V. Helms, E. D. Hermes, K. Hirao, S. Hirata, M. Jacquelin, L. Jensen,
   B. G. Johnson, H. Jónsson, R. A. Kendall, M. Klemm, R. Kobayashi, V. Konkov,
      S. Krishnamoorthy, M. Krishnan, Z. Lin, R. D. Lins, R. J. Littlefield,
      A. J. Logsdail, K. Lopata, W. Ma, A. V. Marenich, J. Martin del Campo,
   D. Mejia-Rodriguez, J. E. Moore, J. M. Mullin, T. Nakajima, D. R. Nascimento,
    J. A. Nichols, P. J. Nichols, J. Nieplocha, A. Otero-de-la-Roza, B. Palmer,
    A. Panyala, T. Pirojsirikul, B. Peng, R. Peverati, J. Pittner, L. Pollack,
   R. M. Richard, P. Sadayappan, G. C. Schatz, W. A. Shelton, D. W. Silverstein,
   D. M. A. Smith, T. A. Soares, D. Song, M. Swart, H. L. Taylor, G. S. Thomas,
            V. Tipparaju, D. G. Truhlar, K. Tsemekhman, T. Van Voorhis,
     Á. Vázquez-Mayagoitia, P. Verma, O. Villa, A. Vishnu, K. D. Vogiatzis,
        D. Wang, J. H. Weare, M. J. Williamson, T. L. Windus, K. Woliński,
        A. T. Wong, Q. Wu, C. Yang, Q. Yu, M. Zacharias, Z. Zhang, Y. Zhao,
                                and R. J. Harrison
                        "NWChem: Past, present, and future
                         J. Chem. Phys. 152, 184102 (2020)
                               doi:10.1063/5.0004997

                                      AUTHORS
                                      -------
     E. Apra, E. J. Bylaska, N. Govind, K. Kowalski, M. Valiev, W. A. de Jong,
      T. P. Straatsma, H. J. J. van Dam, D. Wang, T. L. Windus, N. P. Bauman,
       A. Panyala, J. Hammond, J. Autschbach, K. Bhaskaran-Nair, J. Brabec,
    K. Lopata, S. A. Fischer, S. Krishnamoorthy, M. Jacquelin, W. Ma, M. Klemm,
       O. Villa, Y. Chen, V. Anisimov, F. Aquino, S. Hirata, M. T. Hackler,
           Eric Hermes, L. Jensen, J. E. Moore, J. C. Becca, V. Konjkov,
            D. Mejia-Rodriguez, T. Risthaus, M. Malagoli, A. Marenich,
   A. Otero-de-la-Roza, J. Mullin, P. Nichols, R. Peverati, J. Pittner, Y. Zhao,
        P.-D. Fan, A. Fonari, M. J. Williamson, R. J. Harrison, J. R. Rehr,
      M. Dupuis, D. Silverstein, D. M. A. Smith, J. Nieplocha, V. Tipparaju,
      M. Krishnan, B. E. Van Kuiken, A. Vazquez-Mayagoitia, M. Swart, Q. Wu,
   T. Van Voorhis, A. A. Auer, M. Nooijen, L. D. Crosby, E. Brown, G. Cisneros,
     G. I. Fann, H. Fruchtl, J. Garza, K. Hirao, R. A. Kendall, J. A. Nichols,
       K. Tsemekhman, K. Wolinski, J. Anchell, D. E. Bernholdt, P. Borowski,
       T. Clark, D. Clerc, H. Dachsel, M. J. O. Deegan, K. Dyall, D. Elwood,
      E. Glendening, M. Gutowski, A. C. Hess, J. Jaffe, B. G. Johnson, J. Ju,
        R. Kobayashi, R. Kutteh, Z. Lin, R. Littlefield, X. Long, B. Meng,
      T. Nakajima, S. Niu, L. Pollack, M. Rosing, K. Glaesemann, G. Sandrone,
      M. Stave, H. Taylor, G. Thomas, J. H. van Lenthe, A. T. Wong, Z. Zhang.

 Total times  cpu:        2.2s     wall:        2.3s
