 argument  1 = nwchem/input_2_11_at_worker_3.nw



============================== echo of input deck ==============================
echo
memory 1000 mb
geometry noautosym noautoz
O -0.64071556 -0.48854013 1.6410419
H -0.19915392 0.37247798 1.5285638
H -1.54433112 -0.32408724 1.298356
O 2.81159896 -0.10395953 -0.18689424
H 3.46294039 -0.4517338 0.43482057
H 2.1584952 -0.82915775 -0.30211113
end
basis spherical
 * library cc-pvdz
end
task scf gradient
================================================================================


                                         
                                         


             Northwest Computational Chemistry Package (NWChem) 7.0.2
             --------------------------------------------------------


                    Environmental Molecular Sciences Laboratory
                       Pacific Northwest National Laboratory
                                Richland, WA 99352

                              Copyright (c) 1994-2020
                       Pacific Northwest National Laboratory
                            Battelle Memorial Institute

             NWChem is an open-source computational chemistry package
                        distributed under the terms of the
                      Educational Community License (ECL) 2.0
             A copy of the license is included with this distribution
                              in the LICENSE.TXT file

                                  ACKNOWLEDGMENT
                                  --------------

            This software and its documentation were developed at the
            EMSL at Pacific Northwest National Laboratory, a multiprogram
            national laboratory, operated for the U.S. Department of Energy
            by Battelle under Contract Number DE-AC05-76RL01830. Support
            for this work was provided by the Department of Energy Office
            of Biological and Environmental Research, Office of Basic
            Energy Sciences, and the Office of Advanced Scientific Computing.


           Job information
           ---------------

    hostname        = pop-os
    program         = nwchem
    date            = Thu Jul  8 18:19:41 2021

    compiled        = Wed_Jan_06_19:48:08_2021
    source          = /build/nwchem-ksKH2r/nwchem-7.0.2
    nwchem branch   = 7.0.2
    nwchem revision = N/A
    ga revision     = 5.7.1
    use scalapack   = T
    input           = nwchem/input_2_11_at_worker_3.nw
    prefix          = input_2_11_at_worker_3.
    data base       = ./input_2_11_at_worker_3.db
    status          = startup
    nproc           =        1
    time left       =     -1s



           Memory information
           ------------------

    heap     =   32767996 doubles =    250.0 Mbytes
    stack    =   32768001 doubles =    250.0 Mbytes
    global   =   65536000 doubles =    500.0 Mbytes (distinct from heap & stack)
    total    =  131071997 doubles =   1000.0 Mbytes
    verify   = yes
    hardfail = no 


           Directory information
           ---------------------

  0 permanent = .
  0 scratch   = .




                                NWChem Input Module
                                -------------------



 Scaling coordinates for geometry "geometry" by  1.889725989
 (inverse scale =  0.529177249)



                             Geometry "geometry" -> ""
                             -------------------------

 Output coordinates in angstroms (scale by  1.889725989 to convert to a.u.)

  No.       Tag          Charge          X              Y              Z
 ---- ---------------- ---------- -------------- -------------- --------------
    1 O                    8.0000    -1.70296645    -0.18991523     0.91140137
    2 H                    1.0000    -1.26140481     0.67110288     0.79892327
    3 H                    1.0000    -2.60658201    -0.02546234     0.56871547
    4 O                    8.0000     1.74934807     0.19466537    -0.91653477
    5 H                    1.0000     2.40068950    -0.15310890    -0.29481996
    6 H                    1.0000     1.09624431    -0.53053285    -1.03175166

      Atomic Mass 
      ----------- 

      O                 15.994910
      H                  1.007825


 Effective nuclear repulsion energy (a.u.)      31.5628984020

            Nuclear Dipole moment (a.u.) 
            ----------------------------
        X                 Y               Z
 ---------------- ---------------- ----------------
     0.0000000000     0.0000000000    -0.0000000000


            XYZ format geometry
            -------------------
     6
 geometry
 O                    -1.70296645    -0.18991523     0.91140137
 H                    -1.26140481     0.67110288     0.79892327
 H                    -2.60658201    -0.02546234     0.56871547
 O                     1.74934807     0.19466537    -0.91653477
 H                     2.40068950    -0.15310890    -0.29481996
 H                     1.09624431    -0.53053285    -1.03175166

 ==============================================================================
                                internuclear distances
 ------------------------------------------------------------------------------
       center one      |      center two      | atomic units |  angstroms
 ------------------------------------------------------------------------------
    2 H                |   1 O                |     1.84089  |     0.97416
    3 H                |   1 O                |     1.85251  |     0.98031
    5 H                |   4 O                |     1.82407  |     0.96526
    6 H                |   4 O                |     1.85707  |     0.98272
 ------------------------------------------------------------------------------
                         number of included internuclear distances:          4
 ==============================================================================



 ==============================================================================
                                 internuclear angles
 ------------------------------------------------------------------------------
        center 1       |       center 2       |       center 3       |  degrees
 ------------------------------------------------------------------------------
    2 H                |   1 O                |   3 H                |   103.25
    5 H                |   4 O                |   6 H                |   104.96
 ------------------------------------------------------------------------------
                            number of included internuclear angles:          2
 ==============================================================================





 Summary of "ao basis" -> "" (spherical)
 ------------------------------------------------------------------------------
       Tag                 Description            Shells   Functions and Types
 ---------------- ------------------------------  ------  ---------------------
 *                          cc-pvdz                   on all atoms 


                      Basis "ao basis" -> "ao basis" (spherical)
                      -----
  O (Oxygen)
  ----------
            Exponent  Coefficients 
       -------------- ---------------------------------------------------------
  1 S  1.17200000E+04  0.000710
  1 S  1.75900000E+03  0.005470
  1 S  4.00800000E+02  0.027837
  1 S  1.13700000E+02  0.104800
  1 S  3.70300000E+01  0.283062
  1 S  1.32700000E+01  0.448719
  1 S  5.02500000E+00  0.270952
  1 S  1.01300000E+00  0.015458

  2 S  1.17200000E+04 -0.000160
  2 S  1.75900000E+03 -0.001263
  2 S  4.00800000E+02 -0.006267
  2 S  1.13700000E+02 -0.025716
  2 S  3.70300000E+01 -0.070924
  2 S  1.32700000E+01 -0.165411
  2 S  5.02500000E+00 -0.116955
  2 S  1.01300000E+00  0.557368

  3 S  3.02300000E-01  1.000000

  4 P  1.77000000E+01  0.043018
  4 P  3.85400000E+00  0.228913
  4 P  1.04600000E+00  0.508728

  5 P  2.75300000E-01  1.000000

  6 D  1.18500000E+00  1.000000

  H (Hydrogen)
  ------------
            Exponent  Coefficients 
       -------------- ---------------------------------------------------------
  1 S  1.30100000E+01  0.019685
  1 S  1.96200000E+00  0.137977
  1 S  4.44600000E-01  0.478148

  2 S  1.22000000E-01  1.000000

  3 P  7.27000000E-01  1.000000



 Summary of "ao basis" -> "ao basis" (spherical)
 ------------------------------------------------------------------------------
       Tag                 Description            Shells   Functions and Types
 ---------------- ------------------------------  ------  ---------------------
 O                          cc-pvdz                  6       14   3s2p1d
 H                          cc-pvdz                  3        5   2s1p


                                 NWChem SCF Module
                                 -----------------



  ao basis        = "ao basis"
  functions       =    48
  atoms           =     6
  closed shells   =    10
  open shells     =     0
  charge          =   0.00
  wavefunction    = RHF 
  input vectors   = atomic
  output vectors  = ./input_2_11_at_worker_3.movecs
  use symmetry    = F
  symmetry adapt  = F


 Summary of "ao basis" -> "ao basis" (spherical)
 ------------------------------------------------------------------------------
       Tag                 Description            Shells   Functions and Types
 ---------------- ------------------------------  ------  ---------------------
 O                          cc-pvdz                  6       14   3s2p1d
 H                          cc-pvdz                  3        5   2s1p



 Forming initial guess at       0.0s


      Superposition of Atomic Density Guess
      -------------------------------------

 Sum of atomic energies:        -151.52445821

      Non-variational initial energy
      ------------------------------

 Total energy =    -151.781924
 1-e energy   =    -270.029111
 2-e energy   =      86.684288
 HOMO         =      -0.462609
 LUMO         =       0.067690


 Starting SCF solution at       0.1s



 ----------------------------------------------
         Quadratically convergent ROHF

 Convergence threshold     :          1.000E-04
 Maximum no. of iterations :           30
 Final Fock-matrix accuracy:          1.000E-07
 ----------------------------------------------


 Integral file          = ./input_2_11_at_worker_3.aoints.0
 Record size in doubles =  65536        No. of integs per rec  =  43688
 Max. records in memory =     23        Max. records in file   = 400304
 No. of bits per label  =      8        No. of bits per value  =     64


 #quartets = 3.191D+04 #integrals = 3.958D+05 #direct =  0.0% #cached =100.0%


              iter       energy          gnorm     gmax       time
             ----- ------------------- --------- --------- --------
                 1     -151.9848078888  1.16D+00  2.55D-01      0.3
                 2     -152.0489524376  2.47D-01  7.48D-02      0.3
                 3     -152.0535646169  2.15D-02  6.36D-03      0.4
                 4     -152.0536007922  3.55D-04  8.50D-05      0.4
                 5     -152.0536008013  5.66D-06  1.84D-06      0.4


       Final RHF  results 
       ------------------ 

         Total SCF energy =   -152.053600801345
      One-electron energy =   -272.723666163341
      Two-electron energy =     89.107166959972
 Nuclear repulsion energy =     31.562898402024

        Time for solution =      0.3s


             Final eigenvalues
             -----------------

              1      
    1  -20.5568
    2  -20.5513
    3   -1.3297
    4   -1.3260
    5   -0.6898
    6   -0.6876
    7   -0.5681
    8   -0.5612
    9   -0.4947
   10   -0.4897
   11    0.1662
   12    0.2026
   13    0.2588
   14    0.2662
   15    0.7641
   16    0.7860
   17    0.8326
   18    0.8620
   19    1.1628
   20    1.1660

                       ROHF Final Molecular Orbital Analysis
                       -------------------------------------

 Vector    2  Occ=2.000000D+00  E=-2.055127D+01
              MO Center=  1.7D+00,  1.9D-01, -9.2D-01, r^2= 1.5D-02
   Bfn.  Coefficient  Atom+Function         Bfn.  Coefficient  Atom+Function  
  ----- ------------  ---------------      ----- ------------  ---------------
    25      1.000868  4 O  s          

 Vector    3  Occ=2.000000D+00  E=-1.329703D+00
              MO Center= -1.8D+00, -4.7D-02,  8.4D-01, r^2= 5.6D-01
   Bfn.  Coefficient  Atom+Function         Bfn.  Coefficient  Atom+Function  
  ----- ------------  ---------------      ----- ------------  ---------------
     2      0.444274  1 O  s                  3      0.388816  1 O  s          
    15      0.186475  2 H  s                 20      0.183996  3 H  s          

 Vector    4  Occ=2.000000D+00  E=-1.326049D+00
              MO Center=  1.7D+00,  4.7D-02, -8.4D-01, r^2= 5.6D-01
   Bfn.  Coefficient  Atom+Function         Bfn.  Coefficient  Atom+Function  
  ----- ------------  ---------------      ----- ------------  ---------------
    26      0.443961  4 O  s                 27      0.388034  4 O  s          
    39      0.190697  5 H  s                 44      0.180940  6 H  s          

 Vector    5  Occ=2.000000D+00  E=-6.897657D-01
              MO Center=  8.3D-01, -6.7D-03, -4.0D-01, r^2= 3.7D+00
   Bfn.  Coefficient  Atom+Function         Bfn.  Coefficient  Atom+Function  
  ----- ------------  ---------------      ----- ------------  ---------------
    28      0.355876  4 O  px                39      0.282661  5 H  s          
    44     -0.274368  6 H  s                  4     -0.217762  1 O  px         
    30      0.203537  4 O  pz                31      0.166134  4 O  px         
    15     -0.162848  2 H  s                 20      0.163248  3 H  s          

 Vector    6  Occ=2.000000D+00  E=-6.875804D-01
              MO Center= -8.8D-01, -6.2D-04,  4.0D-01, r^2= 3.7D+00
   Bfn.  Coefficient  Atom+Function         Bfn.  Coefficient  Atom+Function  
  ----- ------------  ---------------      ----- ------------  ---------------
     4      0.367790  1 O  px                15      0.278802  2 H  s          
    20     -0.276884  3 H  s                 28      0.208090  4 O  px         
     5      0.196105  1 O  py                 7      0.174439  1 O  px         
    39      0.167115  5 H  s                 44     -0.162569  6 H  s          

 Vector    7  Occ=2.000000D+00  E=-5.680577D-01
              MO Center= -1.7D+00, -2.2D-01,  9.2D-01, r^2= 7.5D-01
   Bfn.  Coefficient  Atom+Function         Bfn.  Coefficient  Atom+Function  
  ----- ------------  ---------------      ----- ------------  ---------------
     5      0.458396  1 O  py                 3     -0.344611  1 O  s          
     8      0.308416  1 O  py                20      0.209524  3 H  s          
     4     -0.205947  1 O  px                15      0.206085  2 H  s          
     6     -0.200972  1 O  pz         

 Vector    8  Occ=2.000000D+00  E=-5.611573D-01
              MO Center=  1.7D+00,  2.3D-01, -9.3D-01, r^2= 7.5D-01
   Bfn.  Coefficient  Atom+Function         Bfn.  Coefficient  Atom+Function  
  ----- ------------  ---------------      ----- ------------  ---------------
    29      0.492893  4 O  py                27      0.339571  4 O  s          
    32      0.334317  4 O  py                30     -0.230185  4 O  pz         
    44     -0.209675  6 H  s                 39     -0.200332  5 H  s          
    33     -0.155612  4 O  pz         

 Vector    9  Occ=2.000000D+00  E=-4.946632D-01
              MO Center= -1.5D+00, -1.5D-01,  7.9D-01, r^2= 1.5D+00
   Bfn.  Coefficient  Atom+Function         Bfn.  Coefficient  Atom+Function  
  ----- ------------  ---------------      ----- ------------  ---------------
     6      0.559681  1 O  pz                 9      0.440453  1 O  pz         
     4     -0.179750  1 O  px                 5      0.165917  1 O  py         

 Vector   10  Occ=2.000000D+00  E=-4.896613D-01
              MO Center=  1.5D+00,  1.5D-01, -7.9D-01, r^2= 1.5D+00
   Bfn.  Coefficient  Atom+Function         Bfn.  Coefficient  Atom+Function  
  ----- ------------  ---------------      ----- ------------  ---------------
    30      0.467539  4 O  pz                33      0.366698  4 O  pz         
    28     -0.328774  4 O  px                31     -0.260980  4 O  px         
    29      0.216345  4 O  py                32      0.169115  4 O  py         

 Vector   11  Occ=0.000000D+00  E= 1.661655D-01
              MO Center= -3.6D-01,  5.5D-02,  5.5D-02, r^2= 6.2D+00
   Bfn.  Coefficient  Atom+Function         Bfn.  Coefficient  Atom+Function  
  ----- ------------  ---------------      ----- ------------  ---------------
     3      0.712083  1 O  s                 16     -0.642462  2 H  s          
    27      0.620949  4 O  s                 45     -0.592411  6 H  s          
    21     -0.539779  3 H  s                 40     -0.442039  5 H  s          
     8      0.219877  1 O  py                32     -0.201154  4 O  py         

 Vector   12  Occ=0.000000D+00  E= 2.026155D-01
              MO Center= -2.5D-02, -1.3D-01,  4.1D-02, r^2= 8.7D+00
   Bfn.  Coefficient  Atom+Function         Bfn.  Coefficient  Atom+Function  
  ----- ------------  ---------------      ----- ------------  ---------------
    21      0.855273  3 H  s                 40     -0.834198  5 H  s          
    27      0.717141  4 O  s                  3     -0.627204  1 O  s          
    45     -0.360816  6 H  s                  7      0.215348  1 O  px         
    16      0.205671  2 H  s                 32     -0.199651  4 O  py         
    33      0.158433  4 O  pz         

 Vector   13  Occ=0.000000D+00  E= 2.588372D-01
              MO Center= -3.9D-01,  1.2D-01,  2.2D-01, r^2= 7.9D+00
   Bfn.  Coefficient  Atom+Function         Bfn.  Coefficient  Atom+Function  
  ----- ------------  ---------------      ----- ------------  ---------------
    21     -1.104754  3 H  s                 16      1.061770  2 H  s          
    40     -0.969253  5 H  s                 45      0.690632  6 H  s          
     7     -0.456278  1 O  px                31      0.333726  4 O  px         
     8     -0.222097  1 O  py                 4     -0.211275  1 O  px         
    33      0.208444  4 O  pz                27      0.174236  4 O  s          

 Vector   14  Occ=0.000000D+00  E= 2.662324D-01
              MO Center=  3.2D-01, -9.1D-02, -2.6D-01, r^2= 6.2D+00
   Bfn.  Coefficient  Atom+Function         Bfn.  Coefficient  Atom+Function  
  ----- ------------  ---------------      ----- ------------  ---------------
    45      1.298167  6 H  s                 16     -1.051269  2 H  s          
    40     -0.930202  5 H  s                 21      0.639141  3 H  s          
    31      0.447122  4 O  px                 7      0.320323  1 O  px         
     8      0.260170  1 O  py                 3      0.242349  1 O  s          
    33      0.223037  4 O  pz                27     -0.215682  4 O  s          

 Vector   15  Occ=0.000000D+00  E= 7.640790D-01
              MO Center= -9.9D-01,  3.6D-02,  3.2D-01, r^2= 4.1D+00
   Bfn.  Coefficient  Atom+Function         Bfn.  Coefficient  Atom+Function  
  ----- ------------  ---------------      ----- ------------  ---------------
    15      0.824027  2 H  s                 20     -0.793096  3 H  s          
    44      0.606817  6 H  s                 21      0.595793  3 H  s          
    16     -0.576546  2 H  s                 45     -0.359309  6 H  s          
     7     -0.342522  1 O  px                39     -0.253768  5 H  s          
    31      0.201147  4 O  px                40      0.198322  5 H  s          

 Vector   16  Occ=0.000000D+00  E= 7.859997D-01
              MO Center=  7.5D-01, -1.2D-01, -3.8D-01, r^2= 5.2D+00
   Bfn.  Coefficient  Atom+Function         Bfn.  Coefficient  Atom+Function  
  ----- ------------  ---------------      ----- ------------  ---------------
    39      0.840323  5 H  s                 44     -0.789133  6 H  s          
    45      0.641732  6 H  s                 40     -0.622888  5 H  s          
    20     -0.584911  3 H  s                 21      0.457895  3 H  s          
    16     -0.302056  2 H  s                 31     -0.298163  4 O  px         
    15      0.280677  2 H  s                 28     -0.213226  4 O  px         

 Vector   17  Occ=0.000000D+00  E= 8.326053D-01
              MO Center= -1.2D-01,  6.1D-03,  1.0D-01, r^2= 6.1D+00
   Bfn.  Coefficient  Atom+Function         Bfn.  Coefficient  Atom+Function  
  ----- ------------  ---------------      ----- ------------  ---------------
    39      0.713821  5 H  s                 20      0.651822  3 H  s          
    40     -0.505790  5 H  s                 21     -0.497254  3 H  s          
    15      0.467176  2 H  s                 44      0.346332  6 H  s          
    16     -0.267728  2 H  s                  3      0.234285  1 O  s          
     5     -0.211388  1 O  py                22     -0.205595  3 H  px         

 Vector   18  Occ=0.000000D+00  E= 8.620086D-01
              MO Center=  5.7D-02,  4.1D-02, -1.6D-02, r^2= 5.2D+00
   Bfn.  Coefficient  Atom+Function         Bfn.  Coefficient  Atom+Function  
  ----- ------------  ---------------      ----- ------------  ---------------
    15      0.744192  2 H  s                 44     -0.650926  6 H  s          
    16     -0.633272  2 H  s                 45      0.567609  6 H  s          
    39     -0.503691  5 H  s                 20      0.361267  3 H  s          
    40      0.324097  5 H  s                 27     -0.266698  4 O  s          
     3      0.243191  1 O  s                 21     -0.200314  3 H  s          

 Vector   19  Occ=0.000000D+00  E= 1.162833D+00
              MO Center= -1.2D+00, -1.6D-01,  6.6D-01, r^2= 3.2D+00
   Bfn.  Coefficient  Atom+Function         Bfn.  Coefficient  Atom+Function  
  ----- ------------  ---------------      ----- ------------  ---------------
     8      1.027065  1 O  py                 3      0.635866  1 O  s          
     5     -0.608277  1 O  py                15     -0.522480  2 H  s          
    20     -0.466205  3 H  s                 32     -0.435707  4 O  py         
     9     -0.404026  1 O  pz                 7     -0.363402  1 O  px         
    29      0.279123  4 O  py                18      0.250878  2 H  py         

 Vector   20  Occ=0.000000D+00  E= 1.165985D+00
              MO Center=  1.4D+00,  1.7D-01, -7.5D-01, r^2= 2.6D+00
   Bfn.  Coefficient  Atom+Function         Bfn.  Coefficient  Atom+Function  
  ----- ------------  ---------------      ----- ------------  ---------------
    32      1.029428  4 O  py                27     -0.665193  4 O  s          
    29     -0.626004  4 O  py                33     -0.598869  4 O  pz         
    39      0.501401  5 H  s                 44      0.447713  6 H  s          
    30      0.369744  4 O  pz                 8      0.295851  1 O  py         
    47      0.227011  6 H  py                 9     -0.221552  1 O  pz         


 center of mass
 --------------
 x =   0.01930133 y =   0.00197674 z =  -0.00213622

 moments of inertia (a.u.)
 ------------------
         109.977993132099         -31.699225343119         195.812805681001
         -31.699225343119         498.712187553530          16.067498045659
         195.812805681001          16.067498045659         402.624438771336

  Mulliken analysis of the total density
  --------------------------------------

    Atom       Charge   Shell Charges
 -----------   ------   -------------------------------------------------------
    1 O    8     8.33   2.00  0.84  0.84  2.80  1.84  0.01
    2 H    1     0.83   0.68  0.07  0.08
    3 H    1     0.83   0.67  0.08  0.08
    4 O    8     8.33   2.00  0.83  0.84  2.81  1.84  0.01
    5 H    1     0.84   0.68  0.07  0.09
    6 H    1     0.83   0.67  0.08  0.08

       Multipole analysis of the density wrt the origin
       ------------------------------------------------

     L   x y z        total         open         nuclear
     -   - - -        -----         ----         -------
     0   0 0 0     -0.000000      0.000000     20.000000

     1   1 0 0     -0.313602      0.000000      0.000000
     1   0 1 0     -0.036695      0.000000      0.000000
     1   0 0 1      0.041989      0.000000     -0.000000

     2   2 0 0     -5.017534      0.000000    225.094828
     2   1 1 0     -3.709956      0.000000     12.792734
     2   1 0 1      2.985109      0.000000   -105.604894
     2   0 2 0     -9.051497      0.000000      4.812488
     2   0 1 1      2.272061      0.000000     -6.063153
     2   0 0 2    -11.834932      0.000000     55.275267


 Parallel integral file used      10 records with       0 large values

                              NWChem Gradients Module
                              -----------------------



  wavefunction    =   RHF     



                         RHF ENERGY GRADIENTS

    atom               coordinates                        gradient
                 x          y          z           x          y          z
   1 O      -3.218140  -0.358888   1.722299    0.018673  -0.031310   0.016437
   2 H      -2.383709   1.268201   1.509746    0.011547   0.025313  -0.003170
   3 H      -4.925726  -0.048117   1.074716   -0.031927   0.006238  -0.012231
   4 O       3.305789   0.367864  -1.732000    0.011657   0.031321  -0.007443
   5 H       4.536645  -0.289334  -0.557129    0.015413  -0.005319   0.013138
   6 H       2.071601  -1.002562  -1.949728   -0.025364  -0.026243  -0.006732

                 ----------------------------------------
                 |  Time  |  1-e(secs)   |  2-e(secs)   |
                 ----------------------------------------
                 |  CPU   |       0.00   |       0.24   |
                 ----------------------------------------
                 |  WALL  |       0.00   |       0.24   |
                 ----------------------------------------

 Task  times  cpu:        0.7s     wall:        0.7s


                                NWChem Input Module
                                -------------------


 Summary of allocated global arrays
-----------------------------------
  No active global arrays



                         GA Statistics for process    0
                         ------------------------------

       create   destroy   get      put      acc     scatter   gather  read&inc
calls:  249      249     6359     2335     2356        0        0      139     
number of processes/call 0.00e+00 0.00e+00 0.00e+00 0.00e+00 0.00e+00
bytes total:             6.37e+06 3.82e+06 9.06e+05 0.00e+00 0.00e+00 1.11e+03
bytes remote:            0.00e+00 0.00e+00 0.00e+00 0.00e+00 0.00e+00 0.00e+00
Max memory consumed for GA by this process: 239616 bytes

MA_summarize_allocated_blocks: starting scan ...
MA_summarize_allocated_blocks: scan completed: 0 heap blocks, 0 stack blocks
MA usage statistics:

	allocation statistics:
					      heap	     stack
					      ----	     -----
	current number of blocks	         0	         0
	maximum number of blocks	        18	        28
	current total bytes		         0	         0
	maximum total bytes		  12084304	  22510248
	maximum total K-bytes		     12085	     22511
	maximum total M-bytes		        13	        23


                                     CITATION
                                     --------
                Please cite the following reference when publishing
                           results obtained with NWChem:

          E. Aprà, E. J. Bylaska, W. A. de Jong, N. Govind, K. Kowalski,
       T. P. Straatsma, M. Valiev, H. J. J. van Dam, Y. Alexeev, J. Anchell,
       V. Anisimov, F. W. Aquino, R. Atta-Fynn, J. Autschbach, N. P. Bauman,
     J. C. Becca, D. E. Bernholdt, K. Bhaskaran-Nair, S. Bogatko, P. Borowski,
        J. Boschen, J. Brabec, A. Bruner, E. Cauët, Y. Chen, G. N. Chuev,
      C. J. Cramer, J. Daily, M. J. O. Deegan, T. H. Dunning Jr., M. Dupuis,
   K. G. Dyall, G. I. Fann, S. A. Fischer, A. Fonari, H. Früchtl, L. Gagliardi,
      J. Garza, N. Gawande, S. Ghosh, K. Glaesemann, A. W. Götz, J. Hammond,
       V. Helms, E. D. Hermes, K. Hirao, S. Hirata, M. Jacquelin, L. Jensen,
   B. G. Johnson, H. Jónsson, R. A. Kendall, M. Klemm, R. Kobayashi, V. Konkov,
      S. Krishnamoorthy, M. Krishnan, Z. Lin, R. D. Lins, R. J. Littlefield,
      A. J. Logsdail, K. Lopata, W. Ma, A. V. Marenich, J. Martin del Campo,
   D. Mejia-Rodriguez, J. E. Moore, J. M. Mullin, T. Nakajima, D. R. Nascimento,
    J. A. Nichols, P. J. Nichols, J. Nieplocha, A. Otero-de-la-Roza, B. Palmer,
    A. Panyala, T. Pirojsirikul, B. Peng, R. Peverati, J. Pittner, L. Pollack,
   R. M. Richard, P. Sadayappan, G. C. Schatz, W. A. Shelton, D. W. Silverstein,
   D. M. A. Smith, T. A. Soares, D. Song, M. Swart, H. L. Taylor, G. S. Thomas,
            V. Tipparaju, D. G. Truhlar, K. Tsemekhman, T. Van Voorhis,
     Á. Vázquez-Mayagoitia, P. Verma, O. Villa, A. Vishnu, K. D. Vogiatzis,
        D. Wang, J. H. Weare, M. J. Williamson, T. L. Windus, K. Woliński,
        A. T. Wong, Q. Wu, C. Yang, Q. Yu, M. Zacharias, Z. Zhang, Y. Zhao,
                                and R. J. Harrison
                        "NWChem: Past, present, and future
                         J. Chem. Phys. 152, 184102 (2020)
                               doi:10.1063/5.0004997

                                      AUTHORS
                                      -------
     E. Apra, E. J. Bylaska, N. Govind, K. Kowalski, M. Valiev, W. A. de Jong,
      T. P. Straatsma, H. J. J. van Dam, D. Wang, T. L. Windus, N. P. Bauman,
       A. Panyala, J. Hammond, J. Autschbach, K. Bhaskaran-Nair, J. Brabec,
    K. Lopata, S. A. Fischer, S. Krishnamoorthy, M. Jacquelin, W. Ma, M. Klemm,
       O. Villa, Y. Chen, V. Anisimov, F. Aquino, S. Hirata, M. T. Hackler,
           Eric Hermes, L. Jensen, J. E. Moore, J. C. Becca, V. Konjkov,
            D. Mejia-Rodriguez, T. Risthaus, M. Malagoli, A. Marenich,
   A. Otero-de-la-Roza, J. Mullin, P. Nichols, R. Peverati, J. Pittner, Y. Zhao,
        P.-D. Fan, A. Fonari, M. J. Williamson, R. J. Harrison, J. R. Rehr,
      M. Dupuis, D. Silverstein, D. M. A. Smith, J. Nieplocha, V. Tipparaju,
      M. Krishnan, B. E. Van Kuiken, A. Vazquez-Mayagoitia, M. Swart, Q. Wu,
   T. Van Voorhis, A. A. Auer, M. Nooijen, L. D. Crosby, E. Brown, G. Cisneros,
     G. I. Fann, H. Fruchtl, J. Garza, K. Hirao, R. A. Kendall, J. A. Nichols,
       K. Tsemekhman, K. Wolinski, J. Anchell, D. E. Bernholdt, P. Borowski,
       T. Clark, D. Clerc, H. Dachsel, M. J. O. Deegan, K. Dyall, D. Elwood,
      E. Glendening, M. Gutowski, A. C. Hess, J. Jaffe, B. G. Johnson, J. Ju,
        R. Kobayashi, R. Kutteh, Z. Lin, R. Littlefield, X. Long, B. Meng,
      T. Nakajima, S. Niu, L. Pollack, M. Rosing, K. Glaesemann, G. Sandrone,
      M. Stave, H. Taylor, G. Thomas, J. H. van Lenthe, A. T. Wong, Z. Zhang.

 Total times  cpu:        0.7s     wall:        0.7s
