 argument  1 = nwchem/input_1_1.nw



============================== echo of input deck ==============================
echo
memory 1000 mb
geometry noautosym noautoz
O 0.87715956 1.70409266 0.47858616
H 1.70199937 1.19722607 0.29220265
H 1.16181787 2.60891668 0.65546661
end
basis spherical
 * library cc-pvdz
end
task scf gradient
================================================================================


                                         
                                         


             Northwest Computational Chemistry Package (NWChem) 7.0.2
             --------------------------------------------------------


                    Environmental Molecular Sciences Laboratory
                       Pacific Northwest National Laboratory
                                Richland, WA 99352

                              Copyright (c) 1994-2020
                       Pacific Northwest National Laboratory
                            Battelle Memorial Institute

             NWChem is an open-source computational chemistry package
                        distributed under the terms of the
                      Educational Community License (ECL) 2.0
             A copy of the license is included with this distribution
                              in the LICENSE.TXT file

                                  ACKNOWLEDGMENT
                                  --------------

            This software and its documentation were developed at the
            EMSL at Pacific Northwest National Laboratory, a multiprogram
            national laboratory, operated for the U.S. Department of Energy
            by Battelle under Contract Number DE-AC05-76RL01830. Support
            for this work was provided by the Department of Energy Office
            of Biological and Environmental Research, Office of Basic
            Energy Sciences, and the Office of Advanced Scientific Computing.


           Job information
           ---------------

    hostname        = pop-os
    program         = nwchem
    date            = Tue Jul  6 14:07:18 2021

    compiled        = Wed_Jan_06_19:48:08_2021
    source          = /build/nwchem-ksKH2r/nwchem-7.0.2
    nwchem branch   = 7.0.2
    nwchem revision = N/A
    ga revision     = 5.7.1
    use scalapack   = T
    input           = nwchem/input_1_1.nw
    prefix          = input_1_1.
    data base       = ./input_1_1.db
    status          = startup
    nproc           =        1
    time left       =     -1s



           Memory information
           ------------------

    heap     =   32767994 doubles =    250.0 Mbytes
    stack    =   32767999 doubles =    250.0 Mbytes
    global   =   65536000 doubles =    500.0 Mbytes (distinct from heap & stack)
    total    =  131071993 doubles =   1000.0 Mbytes
    verify   = yes
    hardfail = no 


           Directory information
           ---------------------

  0 permanent = .
  0 scratch   = .




                                NWChem Input Module
                                -------------------



 Scaling coordinates for geometry "geometry" by  1.889725989
 (inverse scale =  0.529177249)



                             Geometry "geometry" -> ""
                             -------------------------

 Output coordinates in angstroms (scale by  1.889725989 to convert to a.u.)

  No.       Tag          Charge          X              Y              Z
 ---- ---------------- ---------- -------------- -------------- --------------
    1 O                    8.0000    -0.11094981    -0.03979574     0.00095031
    2 H                    1.0000     0.71389000    -0.54666233    -0.18543320
    3 H                    1.0000     0.17370850     0.86502828     0.17783076

      Atomic Mass 
      ----------- 

      O                 15.994910
      H                  1.007825


 Effective nuclear repulsion energy (a.u.)       9.0217724893

            Nuclear Dipole moment (a.u.) 
            ----------------------------
        X                 Y               Z
 ---------------- ---------------- ----------------
    -0.0000000000     0.0000000000    -0.0000000000


            XYZ format geometry
            -------------------
     3
 geometry
 O                    -0.11094981    -0.03979574     0.00095031
 H                     0.71389000    -0.54666233    -0.18543320
 H                     0.17370850     0.86502828     0.17783076

 ==============================================================================
                                internuclear distances
 ------------------------------------------------------------------------------
       center one      |      center two      | atomic units |  angstroms
 ------------------------------------------------------------------------------
    2 H                |   1 O                |     1.86309  |     0.98591
    3 H                |   1 O                |     1.82339  |     0.96490
 ------------------------------------------------------------------------------
                         number of included internuclear distances:          2
 ==============================================================================



 ==============================================================================
                                 internuclear angles
 ------------------------------------------------------------------------------
        center 1       |       center 2       |       center 3       |  degrees
 ------------------------------------------------------------------------------
    2 H                |   1 O                |   3 H                |   105.66
 ------------------------------------------------------------------------------
                            number of included internuclear angles:          1
 ==============================================================================





 Summary of "ao basis" -> "" (spherical)
 ------------------------------------------------------------------------------
       Tag                 Description            Shells   Functions and Types
 ---------------- ------------------------------  ------  ---------------------
 *                          cc-pvdz                   on all atoms 


                      Basis "ao basis" -> "ao basis" (spherical)
                      -----
  O (Oxygen)
  ----------
            Exponent  Coefficients 
       -------------- ---------------------------------------------------------
  1 S  1.17200000E+04  0.000710
  1 S  1.75900000E+03  0.005470
  1 S  4.00800000E+02  0.027837
  1 S  1.13700000E+02  0.104800
  1 S  3.70300000E+01  0.283062
  1 S  1.32700000E+01  0.448719
  1 S  5.02500000E+00  0.270952
  1 S  1.01300000E+00  0.015458

  2 S  1.17200000E+04 -0.000160
  2 S  1.75900000E+03 -0.001263
  2 S  4.00800000E+02 -0.006267
  2 S  1.13700000E+02 -0.025716
  2 S  3.70300000E+01 -0.070924
  2 S  1.32700000E+01 -0.165411
  2 S  5.02500000E+00 -0.116955
  2 S  1.01300000E+00  0.557368

  3 S  3.02300000E-01  1.000000

  4 P  1.77000000E+01  0.043018
  4 P  3.85400000E+00  0.228913
  4 P  1.04600000E+00  0.508728

  5 P  2.75300000E-01  1.000000

  6 D  1.18500000E+00  1.000000

  H (Hydrogen)
  ------------
            Exponent  Coefficients 
       -------------- ---------------------------------------------------------
  1 S  1.30100000E+01  0.019685
  1 S  1.96200000E+00  0.137977
  1 S  4.44600000E-01  0.478148

  2 S  1.22000000E-01  1.000000

  3 P  7.27000000E-01  1.000000



 Summary of "ao basis" -> "ao basis" (spherical)
 ------------------------------------------------------------------------------
       Tag                 Description            Shells   Functions and Types
 ---------------- ------------------------------  ------  ---------------------
 O                          cc-pvdz                  6       14   3s2p1d
 H                          cc-pvdz                  3        5   2s1p


                                 NWChem SCF Module
                                 -----------------



  ao basis        = "ao basis"
  functions       =    24
  atoms           =     3
  closed shells   =     5
  open shells     =     0
  charge          =   0.00
  wavefunction    = RHF 
  input vectors   = atomic
  output vectors  = ./input_1_1.movecs
  use symmetry    = F
  symmetry adapt  = F


 Summary of "ao basis" -> "ao basis" (spherical)
 ------------------------------------------------------------------------------
       Tag                 Description            Shells   Functions and Types
 ---------------- ------------------------------  ------  ---------------------
 O                          cc-pvdz                  6       14   3s2p1d
 H                          cc-pvdz                  3        5   2s1p



 Forming initial guess at       0.0s


      Superposition of Atomic Density Guess
      -------------------------------------

 Sum of atomic energies:         -75.76222910

      Non-variational initial energy
      ------------------------------

 Total energy =     -75.889557
 1-e energy   =    -121.494453
 2-e energy   =      36.583124
 HOMO         =      -0.463773
 LUMO         =       0.086215


 Starting SCF solution at       0.1s



 ----------------------------------------------
         Quadratically convergent ROHF

 Convergence threshold     :          1.000E-04
 Maximum no. of iterations :           30
 Final Fock-matrix accuracy:          1.000E-07
 ----------------------------------------------


 Integral file          = ./input_1_1.aoints.0
 Record size in doubles =  65536        No. of integs per rec  =  43688
 Max. records in memory =      3        Max. records in file   = 200316
 No. of bits per label  =      8        No. of bits per value  =     64


 #quartets = 3.081D+03 #integrals = 4.593D+04 #direct =  0.0% #cached =100.0%


              iter       energy          gnorm     gmax       time
             ----- ------------------- --------- --------- --------
                 1      -75.9897239013  8.31D-01  3.62D-01      0.1
                 2      -76.0226353022  1.77D-01  8.17D-02      0.1
                 3      -76.0249926051  1.53D-02  6.76D-03      0.1
                 4      -76.0250107362  3.28D-05  1.78D-05      0.1


       Final RHF  results 
       ------------------ 

         Total SCF energy =    -76.025010736239
      One-electron energy =   -122.845647708155
      Two-electron energy =     37.798864482591
 Nuclear repulsion energy =      9.021772489324

        Time for solution =      0.1s


             Final eigenvalues
             -----------------

              1      
    1  -20.5529
    2   -1.3269
    3   -0.6918
    4   -0.5608
    5   -0.4915
    6    0.1826
    7    0.2534
    8    0.7791
    9    0.8340
   10    1.1638
   11    1.2002
   12    1.2535
   13    1.4581
   14    1.4682
   15    1.6776

                       ROHF Final Molecular Orbital Analysis
                       -------------------------------------

 Vector    2  Occ=2.000000D+00  E=-1.326895D+00
              MO Center=  4.0D-02,  2.4D-02,  1.8D-03, r^2= 5.1D-01
   Bfn.  Coefficient  Atom+Function         Bfn.  Coefficient  Atom+Function  
  ----- ------------  ---------------      ----- ------------  ---------------
     2      0.444977  1 O  s                  3      0.389038  1 O  s          
    20      0.191109  3 H  s                 15      0.180096  2 H  s          

 Vector    3  Occ=2.000000D+00  E=-6.918133D-01
              MO Center=  1.0D-01,  3.2D-02, -2.0D-03, r^2= 7.9D-01
   Bfn.  Coefficient  Atom+Function         Bfn.  Coefficient  Atom+Function  
  ----- ------------  ---------------      ----- ------------  ---------------
     5      0.447486  1 O  py                20      0.329618  3 H  s          
    15     -0.320169  2 H  s                  8      0.206852  1 O  py         
     4     -0.154887  1 O  px         

 Vector    4  Occ=2.000000D+00  E=-5.608495D-01
              MO Center= -1.4D-01, -5.9D-02, -3.0D-04, r^2= 6.9D-01
   Bfn.  Coefficient  Atom+Function         Bfn.  Coefficient  Atom+Function  
  ----- ------------  ---------------      ----- ------------  ---------------
     4      0.513076  1 O  px                 7      0.348499  1 O  px         
     3     -0.340047  1 O  s                 15      0.210035  2 H  s          
    20      0.199188  3 H  s                  5      0.184062  1 O  py         

 Vector    5  Occ=2.000000D+00  E=-4.914710D-01
              MO Center= -9.0D-02, -3.1D-02,  9.7D-04, r^2= 6.0D-01
   Bfn.  Coefficient  Atom+Function         Bfn.  Coefficient  Atom+Function  
  ----- ------------  ---------------      ----- ------------  ---------------
     6      0.614177  1 O  pz                 9      0.482917  1 O  pz         

 Vector    6  Occ=0.000000D+00  E= 1.825604D-01
              MO Center=  5.8D-01,  1.6D-01, -1.6D-02, r^2= 3.0D+00
   Bfn.  Coefficient  Atom+Function         Bfn.  Coefficient  Atom+Function  
  ----- ------------  ---------------      ----- ------------  ---------------
     3      0.986243  1 O  s                 16     -0.849834  2 H  s          
    21     -0.793461  3 H  s                  7      0.327264  1 O  px         
     4      0.187489  1 O  px         

 Vector    7  Occ=0.000000D+00  E= 2.534266D-01
              MO Center=  5.5D-01,  2.7D-01,  1.1D-02, r^2= 3.6D+00
   Bfn.  Coefficient  Atom+Function         Bfn.  Coefficient  Atom+Function  
  ----- ------------  ---------------      ----- ------------  ---------------
    21     -1.434570  3 H  s                 16      1.373874  2 H  s          
     8      0.613535  1 O  py                 5      0.263004  1 O  py         
     7     -0.222788  1 O  px                 9      0.156816  1 O  pz         

 Vector    8  Occ=0.000000D+00  E= 7.791112D-01
              MO Center=  3.3D-01, -1.1D-01, -5.4D-02, r^2= 1.7D+00
   Bfn.  Coefficient  Atom+Function         Bfn.  Coefficient  Atom+Function  
  ----- ------------  ---------------      ----- ------------  ---------------
    15      1.064183  2 H  s                 16     -0.802898  2 H  s          
    20     -0.793259  3 H  s                 21      0.600892  3 H  s          
     8      0.381855  1 O  py                 5      0.230864  1 O  py         
    17      0.180895  2 H  px         

 Vector    9  Occ=0.000000D+00  E= 8.340438D-01
              MO Center=  3.7D-01,  3.5D-01,  4.5D-02, r^2= 1.6D+00
   Bfn.  Coefficient  Atom+Function         Bfn.  Coefficient  Atom+Function  
  ----- ------------  ---------------      ----- ------------  ---------------
    20      0.954241  3 H  s                 21     -0.649242  3 H  s          
    15      0.644505  2 H  s                 16     -0.449376  2 H  s          
     3      0.296517  1 O  s                 23      0.291325  3 H  py         
     4     -0.279219  1 O  px                 2     -0.251611  1 O  s          
    18     -0.231135  2 H  py         

 Vector   10  Occ=0.000000D+00  E= 1.163837D+00
              MO Center= -1.1D-01, -6.5D-02, -4.6D-03, r^2= 1.2D+00
   Bfn.  Coefficient  Atom+Function         Bfn.  Coefficient  Atom+Function  
  ----- ------------  ---------------      ----- ------------  ---------------
     7      1.138335  1 O  px                 3      0.708315  1 O  s          
     4     -0.707449  1 O  px                20     -0.520351  3 H  s          
     8      0.508331  1 O  py                15     -0.481060  2 H  s          
     5     -0.294384  1 O  py                17      0.264698  2 H  px         
    22      0.211353  3 H  px                23      0.184359  3 H  py         

 Vector   11  Occ=0.000000D+00  E= 1.200182D+00
              MO Center= -9.4D-02, -4.5D-02, -1.6D-03, r^2= 1.1D+00
   Bfn.  Coefficient  Atom+Function         Bfn.  Coefficient  Atom+Function  
  ----- ------------  ---------------      ----- ------------  ---------------
     9     -0.982723  1 O  pz                 6      0.940463  1 O  pz         
     8      0.219529  1 O  py                 5     -0.210088  1 O  py         

 Vector   12  Occ=0.000000D+00  E= 1.253469D+00
              MO Center= -1.3D-01, -1.9D-02,  7.3D-03, r^2= 1.7D+00
   Bfn.  Coefficient  Atom+Function         Bfn.  Coefficient  Atom+Function  
  ----- ------------  ---------------      ----- ------------  ---------------
     8      1.571545  1 O  py                21     -0.796521  3 H  s          
    16      0.787526  2 H  s                  5     -0.657291  1 O  py         
     7     -0.644820  1 O  px                 9      0.408254  1 O  pz         
    15      0.390841  2 H  s                 20     -0.355689  3 H  s          
    23      0.338604  3 H  py                 4      0.287925  1 O  px         

 Vector   13  Occ=0.000000D+00  E= 1.458096D+00
              MO Center=  4.1D-02,  1.0D-02, -1.4D-03, r^2= 1.4D+00
   Bfn.  Coefficient  Atom+Function         Bfn.  Coefficient  Atom+Function  
  ----- ------------  ---------------      ----- ------------  ---------------
     7      0.683353  1 O  px                22     -0.619063  3 H  px         
     2      0.560164  1 O  s                  3     -0.553648  1 O  s          
    18     -0.486766  2 H  py                17     -0.395960  2 H  px         
    20     -0.322852  3 H  s                 15     -0.311714  2 H  s          
     8      0.264490  1 O  py                 1      0.216590  1 O  s          

 Vector   14  Occ=0.000000D+00  E= 1.468237D+00
              MO Center=  4.1D-01,  1.4D-01, -4.9D-03, r^2= 1.1D+00
   Bfn.  Coefficient  Atom+Function         Bfn.  Coefficient  Atom+Function  
  ----- ------------  ---------------      ----- ------------  ---------------
    19      0.671211  2 H  pz                24     -0.657071  3 H  pz         

 Vector   15  Occ=0.000000D+00  E= 1.677622D+00
              MO Center=  2.7D-01,  1.1D-01,  4.4D-04, r^2= 1.2D+00
   Bfn.  Coefficient  Atom+Function         Bfn.  Coefficient  Atom+Function  
  ----- ------------  ---------------      ----- ------------  ---------------
    24      0.752761  3 H  pz                19      0.734482  2 H  pz         
     9     -0.626981  1 O  pz                23     -0.168158  3 H  py         
    18     -0.164075  2 H  py         


 center of mass
 --------------
 x =  -0.09234170 y =  -0.03312134 z =   0.00079092

 moments of inertia (a.u.)
 ------------------
           4.076879523896           0.666626693753           0.369963811297
           0.666626693753           2.729950694852          -0.916771229545
           0.369963811297          -0.916771229545           6.331613956386

  Mulliken analysis of the total density
  --------------------------------------

    Atom       Charge   Shell Charges
 -----------   ------   -------------------------------------------------------
    1 O    8     8.33   2.00  0.83  0.84  2.81  1.84  0.01
    2 H    1     0.83   0.67  0.08  0.08
    3 H    1     0.84   0.68  0.07  0.09

       Multipole analysis of the density wrt the origin
       ------------------------------------------------

     L   x y z        total         open         nuclear
     -   - - -        -----         ----         -------
     0   0 0 0     -0.000000      0.000000     10.000000

     1   1 0 0      0.759443      0.000000     -0.000000
     1   0 1 0      0.277987      0.000000      0.000000
     1   0 0 1     -0.005256      0.000000     -0.000000

     2   2 0 0     -4.234440      0.000000      2.279383
     2   1 1 0     -0.435195      0.000000     -0.730895
     2   1 0 1     -0.188223      0.000000     -0.365433
     2   0 2 0     -3.290306      0.000000      3.784554
     2   0 1 1      0.478725      0.000000      0.910248
     2   0 0 2     -5.136907      0.000000      0.235749


 Parallel integral file used       2 records with       0 large values

                              NWChem Gradients Module
                              -----------------------



  wavefunction    =   RHF     



                         RHF ENERGY GRADIENTS

    atom               coordinates                        gradient
                 x          y          z           x          y          z
   1 O      -0.209665  -0.075203   0.001796   -0.035353   0.003647   0.003950
   2 H       1.349056  -1.033042  -0.350418    0.032583  -0.024010  -0.008253
   3 H       0.328261   1.634666   0.336051    0.002770   0.020362   0.004303

                 ----------------------------------------
                 |  Time  |  1-e(secs)   |  2-e(secs)   |
                 ----------------------------------------
                 |  CPU   |       0.00   |       0.10   |
                 ----------------------------------------
                 |  WALL  |       0.00   |       0.10   |
                 ----------------------------------------

 Task  times  cpu:        0.2s     wall:        0.2s


                                NWChem Input Module
                                -------------------


 Summary of allocated global arrays
-----------------------------------
  No active global arrays



                         GA Statistics for process    0
                         ------------------------------

       create   destroy   get      put      acc     scatter   gather  read&inc
calls:  214      214     4372     1075     1036        0        0       92     
number of processes/call 0.00e+00 0.00e+00 0.00e+00 0.00e+00 0.00e+00
bytes total:             1.41e+06 8.51e+05 1.89e+05 0.00e+00 0.00e+00 7.36e+02
bytes remote:            0.00e+00 0.00e+00 0.00e+00 0.00e+00 0.00e+00 0.00e+00
Max memory consumed for GA by this process: 59904 bytes

MA_summarize_allocated_blocks: starting scan ...
MA_summarize_allocated_blocks: scan completed: 0 heap blocks, 0 stack blocks
MA usage statistics:

	allocation statistics:
					      heap	     stack
					      ----	     -----
	current number of blocks	         0	         0
	maximum number of blocks	        18	        28
	current total bytes		         0	         0
	maximum total bytes		   1585840	  22509656
	maximum total K-bytes		      1586	     22510
	maximum total M-bytes		         2	        23


                                     CITATION
                                     --------
                Please cite the following reference when publishing
                           results obtained with NWChem:

          E. Aprà, E. J. Bylaska, W. A. de Jong, N. Govind, K. Kowalski,
       T. P. Straatsma, M. Valiev, H. J. J. van Dam, Y. Alexeev, J. Anchell,
       V. Anisimov, F. W. Aquino, R. Atta-Fynn, J. Autschbach, N. P. Bauman,
     J. C. Becca, D. E. Bernholdt, K. Bhaskaran-Nair, S. Bogatko, P. Borowski,
        J. Boschen, J. Brabec, A. Bruner, E. Cauët, Y. Chen, G. N. Chuev,
      C. J. Cramer, J. Daily, M. J. O. Deegan, T. H. Dunning Jr., M. Dupuis,
   K. G. Dyall, G. I. Fann, S. A. Fischer, A. Fonari, H. Früchtl, L. Gagliardi,
      J. Garza, N. Gawande, S. Ghosh, K. Glaesemann, A. W. Götz, J. Hammond,
       V. Helms, E. D. Hermes, K. Hirao, S. Hirata, M. Jacquelin, L. Jensen,
   B. G. Johnson, H. Jónsson, R. A. Kendall, M. Klemm, R. Kobayashi, V. Konkov,
      S. Krishnamoorthy, M. Krishnan, Z. Lin, R. D. Lins, R. J. Littlefield,
      A. J. Logsdail, K. Lopata, W. Ma, A. V. Marenich, J. Martin del Campo,
   D. Mejia-Rodriguez, J. E. Moore, J. M. Mullin, T. Nakajima, D. R. Nascimento,
    J. A. Nichols, P. J. Nichols, J. Nieplocha, A. Otero-de-la-Roza, B. Palmer,
    A. Panyala, T. Pirojsirikul, B. Peng, R. Peverati, J. Pittner, L. Pollack,
   R. M. Richard, P. Sadayappan, G. C. Schatz, W. A. Shelton, D. W. Silverstein,
   D. M. A. Smith, T. A. Soares, D. Song, M. Swart, H. L. Taylor, G. S. Thomas,
            V. Tipparaju, D. G. Truhlar, K. Tsemekhman, T. Van Voorhis,
     Á. Vázquez-Mayagoitia, P. Verma, O. Villa, A. Vishnu, K. D. Vogiatzis,
        D. Wang, J. H. Weare, M. J. Williamson, T. L. Windus, K. Woliński,
        A. T. Wong, Q. Wu, C. Yang, Q. Yu, M. Zacharias, Z. Zhang, Y. Zhao,
                                and R. J. Harrison
                        "NWChem: Past, present, and future
                         J. Chem. Phys. 152, 184102 (2020)
                               doi:10.1063/5.0004997

                                      AUTHORS
                                      -------
     E. Apra, E. J. Bylaska, N. Govind, K. Kowalski, M. Valiev, W. A. de Jong,
      T. P. Straatsma, H. J. J. van Dam, D. Wang, T. L. Windus, N. P. Bauman,
       A. Panyala, J. Hammond, J. Autschbach, K. Bhaskaran-Nair, J. Brabec,
    K. Lopata, S. A. Fischer, S. Krishnamoorthy, M. Jacquelin, W. Ma, M. Klemm,
       O. Villa, Y. Chen, V. Anisimov, F. Aquino, S. Hirata, M. T. Hackler,
           Eric Hermes, L. Jensen, J. E. Moore, J. C. Becca, V. Konjkov,
            D. Mejia-Rodriguez, T. Risthaus, M. Malagoli, A. Marenich,
   A. Otero-de-la-Roza, J. Mullin, P. Nichols, R. Peverati, J. Pittner, Y. Zhao,
        P.-D. Fan, A. Fonari, M. J. Williamson, R. J. Harrison, J. R. Rehr,
      M. Dupuis, D. Silverstein, D. M. A. Smith, J. Nieplocha, V. Tipparaju,
      M. Krishnan, B. E. Van Kuiken, A. Vazquez-Mayagoitia, M. Swart, Q. Wu,
   T. Van Voorhis, A. A. Auer, M. Nooijen, L. D. Crosby, E. Brown, G. Cisneros,
     G. I. Fann, H. Fruchtl, J. Garza, K. Hirao, R. A. Kendall, J. A. Nichols,
       K. Tsemekhman, K. Wolinski, J. Anchell, D. E. Bernholdt, P. Borowski,
       T. Clark, D. Clerc, H. Dachsel, M. J. O. Deegan, K. Dyall, D. Elwood,
      E. Glendening, M. Gutowski, A. C. Hess, J. Jaffe, B. G. Johnson, J. Ju,
        R. Kobayashi, R. Kutteh, Z. Lin, R. Littlefield, X. Long, B. Meng,
      T. Nakajima, S. Niu, L. Pollack, M. Rosing, K. Glaesemann, G. Sandrone,
      M. Stave, H. Taylor, G. Thomas, J. H. van Lenthe, A. T. Wong, Z. Zhang.

 Total times  cpu:        0.2s     wall:        0.3s
