 argument  1 = nwchem/input_3_1_at_worker_4_1.nw



============================== echo of input deck ==============================
echo
memory 1000 mb
geometry noautosym noautoz
O 0.87715956 1.70409266 0.47858616
H 1.70199937 1.19722607 0.29220265
H 1.16181787 2.60891668 0.65546661
O -0.82054445 0.61636011 -1.6312343
H -0.26682713 1.17302621 -1.05309865
H -0.36885969 -0.24447946 -1.58195952
O -0.64071556 -0.48854013 1.6410419
H -0.19915392 0.37247798 1.5285638
H -1.54433112 -0.32408724 1.298356
end
basis spherical
 * library cc-pvdz
end
task scf gradient
================================================================================


                                         
                                         


             Northwest Computational Chemistry Package (NWChem) 7.0.2
             --------------------------------------------------------


                    Environmental Molecular Sciences Laboratory
                       Pacific Northwest National Laboratory
                                Richland, WA 99352

                              Copyright (c) 1994-2020
                       Pacific Northwest National Laboratory
                            Battelle Memorial Institute

             NWChem is an open-source computational chemistry package
                        distributed under the terms of the
                      Educational Community License (ECL) 2.0
             A copy of the license is included with this distribution
                              in the LICENSE.TXT file

                                  ACKNOWLEDGMENT
                                  --------------

            This software and its documentation were developed at the
            EMSL at Pacific Northwest National Laboratory, a multiprogram
            national laboratory, operated for the U.S. Department of Energy
            by Battelle under Contract Number DE-AC05-76RL01830. Support
            for this work was provided by the Department of Energy Office
            of Biological and Environmental Research, Office of Basic
            Energy Sciences, and the Office of Advanced Scientific Computing.


           Job information
           ---------------

    hostname        = pop-os
    program         = nwchem
    date            = Thu Jul  8 18:22:18 2021

    compiled        = Wed_Jan_06_19:48:08_2021
    source          = /build/nwchem-ksKH2r/nwchem-7.0.2
    nwchem branch   = 7.0.2
    nwchem revision = N/A
    ga revision     = 5.7.1
    use scalapack   = T
    input           = nwchem/input_3_1_at_worker_4_1.nw
    prefix          = input_3_1_at_worker_4_1.
    data base       = ./input_3_1_at_worker_4_1.db
    status          = startup
    nproc           =        1
    time left       =     -1s



           Memory information
           ------------------

    heap     =   32767996 doubles =    250.0 Mbytes
    stack    =   32768001 doubles =    250.0 Mbytes
    global   =   65536000 doubles =    500.0 Mbytes (distinct from heap & stack)
    total    =  131071997 doubles =   1000.0 Mbytes
    verify   = yes
    hardfail = no 


           Directory information
           ---------------------

  0 permanent = .
  0 scratch   = .




                                NWChem Input Module
                                -------------------



 Scaling coordinates for geometry "geometry" by  1.889725989
 (inverse scale =  0.529177249)



                             Geometry "geometry" -> ""
                             -------------------------

 Output coordinates in angstroms (scale by  1.889725989 to convert to a.u.)

  No.       Tag          Charge          X              Y              Z
 ---- ---------------- ---------- -------------- -------------- --------------
    1 O                    8.0000     1.01676483     1.05614661     0.31036346
    2 H                    1.0000     1.84160464     0.54928002     0.12397995
    3 H                    1.0000     1.30142314     1.96097063     0.48724391
    4 O                    8.0000    -0.68093918    -0.03158594    -1.79945700
    5 H                    1.0000    -0.12722186     0.52508016    -1.22132135
    6 H                    1.0000    -0.22925442    -0.89242551    -1.75018222
    7 O                    8.0000    -0.50111029    -1.13648618     1.47281920
    8 H                    1.0000    -0.05954865    -0.27546807     1.36034110
    9 H                    1.0000    -1.40472585    -0.97203329     1.13013330

      Atomic Mass 
      ----------- 

      O                 15.994910
      H                  1.007825


 Effective nuclear repulsion energy (a.u.)      79.3618499085

            Nuclear Dipole moment (a.u.) 
            ----------------------------
        X                 Y               Z
 ---------------- ---------------- ----------------
    -0.0000000000    -0.0000000000    -0.0000000000


            XYZ format geometry
            -------------------
     9
 geometry
 O                     1.01676483     1.05614661     0.31036346
 H                     1.84160464     0.54928002     0.12397995
 H                     1.30142314     1.96097063     0.48724391
 O                    -0.68093918    -0.03158594    -1.79945700
 H                    -0.12722186     0.52508016    -1.22132135
 H                    -0.22925442    -0.89242551    -1.75018222
 O                    -0.50111029    -1.13648618     1.47281920
 H                    -0.05954865    -0.27546807     1.36034110
 H                    -1.40472585    -0.97203329     1.13013330

 ==============================================================================
                                internuclear distances
 ------------------------------------------------------------------------------
       center one      |      center two      | atomic units |  angstroms
 ------------------------------------------------------------------------------
    2 H                |   1 O                |     1.86309  |     0.98591
    3 H                |   1 O                |     1.82339  |     0.96490
    5 H                |   4 O                |     1.84258  |     0.97505
    6 H                |   4 O                |     1.83944  |     0.97339
    8 H                |   7 O                |     1.84089  |     0.97416
    9 H                |   7 O                |     1.85251  |     0.98031
 ------------------------------------------------------------------------------
                         number of included internuclear distances:          6
 ==============================================================================



 ==============================================================================
                                 internuclear angles
 ------------------------------------------------------------------------------
        center 1       |       center 2       |       center 3       |  degrees
 ------------------------------------------------------------------------------
    2 H                |   1 O                |   3 H                |   105.66
    5 H                |   4 O                |   6 H                |   102.20
    8 H                |   7 O                |   9 H                |   103.25
 ------------------------------------------------------------------------------
                            number of included internuclear angles:          3
 ==============================================================================





 Summary of "ao basis" -> "" (spherical)
 ------------------------------------------------------------------------------
       Tag                 Description            Shells   Functions and Types
 ---------------- ------------------------------  ------  ---------------------
 *                          cc-pvdz                   on all atoms 


                      Basis "ao basis" -> "ao basis" (spherical)
                      -----
  O (Oxygen)
  ----------
            Exponent  Coefficients 
       -------------- ---------------------------------------------------------
  1 S  1.17200000E+04  0.000710
  1 S  1.75900000E+03  0.005470
  1 S  4.00800000E+02  0.027837
  1 S  1.13700000E+02  0.104800
  1 S  3.70300000E+01  0.283062
  1 S  1.32700000E+01  0.448719
  1 S  5.02500000E+00  0.270952
  1 S  1.01300000E+00  0.015458

  2 S  1.17200000E+04 -0.000160
  2 S  1.75900000E+03 -0.001263
  2 S  4.00800000E+02 -0.006267
  2 S  1.13700000E+02 -0.025716
  2 S  3.70300000E+01 -0.070924
  2 S  1.32700000E+01 -0.165411
  2 S  5.02500000E+00 -0.116955
  2 S  1.01300000E+00  0.557368

  3 S  3.02300000E-01  1.000000

  4 P  1.77000000E+01  0.043018
  4 P  3.85400000E+00  0.228913
  4 P  1.04600000E+00  0.508728

  5 P  2.75300000E-01  1.000000

  6 D  1.18500000E+00  1.000000

  H (Hydrogen)
  ------------
            Exponent  Coefficients 
       -------------- ---------------------------------------------------------
  1 S  1.30100000E+01  0.019685
  1 S  1.96200000E+00  0.137977
  1 S  4.44600000E-01  0.478148

  2 S  1.22000000E-01  1.000000

  3 P  7.27000000E-01  1.000000



 Summary of "ao basis" -> "ao basis" (spherical)
 ------------------------------------------------------------------------------
       Tag                 Description            Shells   Functions and Types
 ---------------- ------------------------------  ------  ---------------------
 O                          cc-pvdz                  6       14   3s2p1d
 H                          cc-pvdz                  3        5   2s1p


                                 NWChem SCF Module
                                 -----------------



  ao basis        = "ao basis"
  functions       =    72
  atoms           =     9
  closed shells   =    15
  open shells     =     0
  charge          =   0.00
  wavefunction    = RHF 
  input vectors   = atomic
  output vectors  = ./input_3_1_at_worker_4_1.movecs
  use symmetry    = F
  symmetry adapt  = F


 Summary of "ao basis" -> "ao basis" (spherical)
 ------------------------------------------------------------------------------
       Tag                 Description            Shells   Functions and Types
 ---------------- ------------------------------  ------  ---------------------
 O                          cc-pvdz                  6       14   3s2p1d
 H                          cc-pvdz                  3        5   2s1p



 Forming initial guess at       0.0s


      Superposition of Atomic Density Guess
      -------------------------------------

 Sum of atomic energies:        -227.28668731

      Non-variational initial energy
      ------------------------------

 Total energy =    -227.748852
 1-e energy   =    -469.068594
 2-e energy   =     161.957892
 HOMO         =      -0.459291
 LUMO         =       0.046968


 Starting SCF solution at       0.3s



 ----------------------------------------------
         Quadratically convergent ROHF

 Convergence threshold     :          1.000E-04
 Maximum no. of iterations :           30
 Final Fock-matrix accuracy:          1.000E-07
 ----------------------------------------------


 Integral file          = ./input_3_1_at_worker_4_1.aoints.0
 Record size in doubles =  65536        No. of integs per rec  =  43688
 Max. records in memory =    110        Max. records in file   = 400223
 No. of bits per label  =      8        No. of bits per value  =     64


 #quartets = 1.836D+05 #integrals = 2.343D+06 #direct =  0.0% #cached =100.0%


              iter       energy          gnorm     gmax       time
             ----- ------------------- --------- --------- --------
                 1     -227.9980131922  1.35D+00  2.74D-01      0.7
                 2     -228.0849177217  2.97D-01  7.81D-02      0.8
                 3     -228.0919215500  2.48D-02  4.81D-03      0.9
                 4     -228.0919740318  4.37D-04  9.85D-05      1.0
                 5     -228.0919740445  6.99D-06  1.19D-06      1.1


       Final RHF  results 
       ------------------ 

         Total SCF energy =   -228.091974044471
      One-electron energy =   -472.967513982285
      Two-electron energy =    165.513690029314
 Nuclear repulsion energy =     79.361849908499

        Time for solution =      0.8s


             Final eigenvalues
             -----------------

              1      
    1  -20.6139
    2  -20.5306
    3  -20.5292
    4   -1.3884
    5   -1.3088
    6   -1.3046
    7   -0.7513
    8   -0.6781
    9   -0.6687
   10   -0.6189
   11   -0.5648
   12   -0.5416
   13   -0.5306
   14   -0.4747
   15   -0.4659
   16    0.1392
   17    0.2094
   18    0.2251
   19    0.2518
   20    0.3435
   21    0.3449
   22    0.7143
   23    0.7826
   24    0.7919
   25    0.8052

                       ROHF Final Molecular Orbital Analysis
                       -------------------------------------

 Vector    4  Occ=2.000000D+00  E=-1.388377D+00
              MO Center=  1.1D+00,  1.1D+00,  3.1D-01, r^2= 5.6D-01
   Bfn.  Coefficient  Atom+Function         Bfn.  Coefficient  Atom+Function  
  ----- ------------  ---------------      ----- ------------  ---------------
     2      0.444895  1 O  s                  3      0.393425  1 O  s          
    20      0.186402  3 H  s                 15      0.176043  2 H  s          

 Vector    5  Occ=2.000000D+00  E=-1.308771D+00
              MO Center= -5.3D-01, -1.0D-01, -1.6D+00, r^2= 9.0D-01
   Bfn.  Coefficient  Atom+Function         Bfn.  Coefficient  Atom+Function  
  ----- ------------  ---------------      ----- ------------  ---------------
    26      0.434469  4 O  s                 27      0.380918  4 O  s          
    44      0.184551  6 H  s                 39      0.180717  5 H  s          

 Vector    6  Occ=2.000000D+00  E=-1.304587D+00
              MO Center= -5.6D-01, -9.6D-01,  1.3D+00, r^2= 8.9D-01
   Bfn.  Coefficient  Atom+Function         Bfn.  Coefficient  Atom+Function  
  ----- ------------  ---------------      ----- ------------  ---------------
    50      0.435562  7 O  s                 51      0.385534  7 O  s          
    63      0.181951  8 H  s                 68      0.180724  9 H  s          

 Vector    7  Occ=2.000000D+00  E=-7.513154D-01
              MO Center=  1.2D+00,  1.1D+00,  3.1D-01, r^2= 8.6D-01
   Bfn.  Coefficient  Atom+Function         Bfn.  Coefficient  Atom+Function  
  ----- ------------  ---------------      ----- ------------  ---------------
     5      0.457659  1 O  py                20      0.329496  3 H  s          
    15     -0.302335  2 H  s                  8      0.217805  1 O  py         

 Vector    8  Occ=2.000000D+00  E=-6.781035D-01
              MO Center= -1.7D-01, -1.0D-01, -2.0D-01, r^2= 3.5D+00
   Bfn.  Coefficient  Atom+Function         Bfn.  Coefficient  Atom+Function  
  ----- ------------  ---------------      ----- ------------  ---------------
    29      0.288830  4 O  py                 4     -0.254141  1 O  px         
    52      0.231974  7 O  px                39      0.220721  5 H  s          
    44     -0.201640  6 H  s                 63      0.193627  8 H  s          
    68     -0.172673  9 H  s                  7     -0.155225  1 O  px         

 Vector    9  Occ=2.000000D+00  E=-6.686817D-01
              MO Center= -4.7D-01, -4.8D-01,  9.8D-03, r^2= 3.4D+00
   Bfn.  Coefficient  Atom+Function         Bfn.  Coefficient  Atom+Function  
  ----- ------------  ---------------      ----- ------------  ---------------
    52     -0.304576  7 O  px                29      0.297462  4 O  py         
    63     -0.233182  8 H  s                 68      0.227004  9 H  s          
    39      0.212249  5 H  s                 44     -0.209082  6 H  s          
    53     -0.168654  7 O  py         

 Vector   10  Occ=2.000000D+00  E=-6.188822D-01
              MO Center=  5.1D-01,  5.4D-01,  1.8D-01, r^2= 2.7D+00
   Bfn.  Coefficient  Atom+Function         Bfn.  Coefficient  Atom+Function  
  ----- ------------  ---------------      ----- ------------  ---------------
     4      0.434297  1 O  px                 3     -0.289583  1 O  s          
     7      0.286471  1 O  px                29      0.186040  4 O  py         
    52      0.185794  7 O  px                15      0.172906  2 H  s          
    20      0.168584  3 H  s                  5      0.156567  1 O  py         

 Vector   11  Occ=2.000000D+00  E=-5.647894D-01
              MO Center=  2.4D-01,  4.0D-01, -2.7D-01, r^2= 3.3D+00
   Bfn.  Coefficient  Atom+Function         Bfn.  Coefficient  Atom+Function  
  ----- ------------  ---------------      ----- ------------  ---------------
     6      0.437643  1 O  pz                 9      0.346609  1 O  pz         
    28     -0.248294  4 O  px                27      0.214263  4 O  s          
    31     -0.168631  4 O  px                44     -0.158500  6 H  s          

 Vector   12  Occ=2.000000D+00  E=-5.416449D-01
              MO Center= -4.5D-01, -6.9D-01,  4.5D-01, r^2= 3.5D+00
   Bfn.  Coefficient  Atom+Function         Bfn.  Coefficient  Atom+Function  
  ----- ------------  ---------------      ----- ------------  ---------------
    53      0.378858  7 O  py                56      0.261291  7 O  py         
    51     -0.257378  7 O  s                 28      0.234650  4 O  px         
    30      0.172915  4 O  pz                63      0.168537  8 H  s          
    27     -0.167284  4 O  s                 54     -0.164065  7 O  pz         
    31      0.159674  4 O  px                68      0.158438  9 H  s          

 Vector   13  Occ=2.000000D+00  E=-5.305649D-01
              MO Center=  6.2D-02,  1.7D-01, -2.0D-01, r^2= 3.8D+00
   Bfn.  Coefficient  Atom+Function         Bfn.  Coefficient  Atom+Function  
  ----- ------------  ---------------      ----- ------------  ---------------
     6      0.407152  1 O  pz                 9      0.308858  1 O  pz         
    28      0.285885  4 O  px                53     -0.250208  7 O  py         
    31      0.198895  4 O  px                30      0.182973  4 O  pz         
    56     -0.175451  7 O  py                27     -0.165184  4 O  s          

 Vector   14  Occ=2.000000D+00  E=-4.747138D-01
              MO Center= -6.0D-01, -4.6D-01, -5.2D-01, r^2= 3.4D+00
   Bfn.  Coefficient  Atom+Function         Bfn.  Coefficient  Atom+Function  
  ----- ------------  ---------------      ----- ------------  ---------------
    30      0.376350  4 O  pz                54     -0.346043  7 O  pz         
    33      0.305035  4 O  pz                28     -0.286864  4 O  px         
    57     -0.280468  7 O  pz                31     -0.227484  4 O  px         

 Vector   15  Occ=2.000000D+00  E=-4.659236D-01
              MO Center= -5.7D-01, -6.9D-01,  2.0D-01, r^2= 3.5D+00
   Bfn.  Coefficient  Atom+Function         Bfn.  Coefficient  Atom+Function  
  ----- ------------  ---------------      ----- ------------  ---------------
    54      0.461501  7 O  pz                57      0.362493  7 O  pz         
    30      0.322671  4 O  pz                33      0.250263  4 O  pz         
    28     -0.202625  4 O  px                31     -0.160152  4 O  px         

 Vector   16  Occ=0.000000D+00  E= 1.391708D-01
              MO Center=  1.4D+00,  9.6D-01,  1.7D-01, r^2= 4.3D+00
   Bfn.  Coefficient  Atom+Function         Bfn.  Coefficient  Atom+Function  
  ----- ------------  ---------------      ----- ------------  ---------------
     3      0.899914  1 O  s                 16     -0.734295  2 H  s          
    21     -0.716927  3 H  s                 45     -0.293930  6 H  s          
     7      0.267689  1 O  px                27      0.223327  4 O  s          
    69     -0.206777  9 H  s                 51      0.190704  7 O  s          

 Vector   17  Occ=0.000000D+00  E= 2.093594D-01
              MO Center=  4.7D-01,  5.3D-01, -1.5D-01, r^2= 7.3D+00
   Bfn.  Coefficient  Atom+Function         Bfn.  Coefficient  Atom+Function  
  ----- ------------  ---------------      ----- ------------  ---------------
    21      1.164688  3 H  s                 45     -0.775454  6 H  s          
    16     -0.654804  2 H  s                 69     -0.516560  9 H  s          
    27      0.440335  4 O  s                  8     -0.427777  1 O  py         
    51      0.307649  7 O  s                  3     -0.290438  1 O  s          
    32     -0.233185  4 O  py                 5     -0.204107  1 O  py         

 Vector   18  Occ=0.000000D+00  E= 2.250618D-01
              MO Center=  4.1D-01, -1.1D-02,  3.9D-01, r^2= 6.6D+00
   Bfn.  Coefficient  Atom+Function         Bfn.  Coefficient  Atom+Function  
  ----- ------------  ---------------      ----- ------------  ---------------
    16      1.200556  2 H  s                 69     -0.820537  9 H  s          
    21     -0.730239  3 H  s                 51      0.552456  7 O  s          
     8      0.365977  1 O  py                45     -0.296460  6 H  s          
     7     -0.285068  1 O  px                27      0.264327  4 O  s          
    55     -0.231313  7 O  px                 3     -0.201608  1 O  s          

 Vector   19  Occ=0.000000D+00  E= 2.517864D-01
              MO Center= -4.7D-01, -8.0D-01, -4.5D-01, r^2= 6.0D+00
   Bfn.  Coefficient  Atom+Function         Bfn.  Coefficient  Atom+Function  
  ----- ------------  ---------------      ----- ------------  ---------------
    45      1.091710  6 H  s                 69     -0.863907  9 H  s          
    27     -0.687212  4 O  s                 51      0.625266  7 O  s          
    16     -0.468318  2 H  s                 21      0.353627  3 H  s          
    32      0.285005  4 O  py                55     -0.234139  7 O  px         
     8     -0.189361  1 O  py                31     -0.188658  4 O  px         

 Vector   20  Occ=0.000000D+00  E= 3.435347D-01
              MO Center= -4.3D-02,  2.7D-01,  2.1D-02, r^2= 5.1D+00
   Bfn.  Coefficient  Atom+Function         Bfn.  Coefficient  Atom+Function  
  ----- ------------  ---------------      ----- ------------  ---------------
    40      1.475715  5 H  s                 64     -1.386882  8 H  s          
    45     -0.715933  6 H  s                 69      0.631541  9 H  s          
    27     -0.435476  4 O  s                 51      0.430975  7 O  s          
    32     -0.405462  4 O  py                55      0.331193  7 O  px         
    56      0.314739  7 O  py                 9      0.251742  1 O  pz         

 Vector   21  Occ=0.000000D+00  E= 3.448867D-01
              MO Center= -1.1D-01,  2.4D-01,  2.1D-01, r^2= 5.3D+00
   Bfn.  Coefficient  Atom+Function         Bfn.  Coefficient  Atom+Function  
  ----- ------------  ---------------      ----- ------------  ---------------
    64      1.337511  8 H  s                 40      1.269400  5 H  s          
    69     -0.833699  9 H  s                 45     -0.604699  6 H  s          
    21     -0.418554  3 H  s                 55     -0.387779  7 O  px         
    27     -0.378432  4 O  s                 32     -0.341504  4 O  py         
    16     -0.330920  2 H  s                  7      0.315973  1 O  px         

 Vector   22  Occ=0.000000D+00  E= 7.142701D-01
              MO Center=  8.8D-01,  8.5D-01, -1.2D-01, r^2= 3.2D+00
   Bfn.  Coefficient  Atom+Function         Bfn.  Coefficient  Atom+Function  
  ----- ------------  ---------------      ----- ------------  ---------------
    15      0.868403  2 H  s                 20     -0.803555  3 H  s          
    16     -0.656663  2 H  s                 21      0.520031  3 H  s          
    44      0.460031  6 H  s                  8      0.437213  1 O  py         
    40      0.414187  5 H  s                 39     -0.369088  5 H  s          
    45     -0.242443  6 H  s                 64      0.211257  8 H  s          

 Vector   23  Occ=0.000000D+00  E= 7.825720D-01
              MO Center= -2.7D-01, -4.8D-01,  1.2D+00, r^2= 3.1D+00
   Bfn.  Coefficient  Atom+Function         Bfn.  Coefficient  Atom+Function  
  ----- ------------  ---------------      ----- ------------  ---------------
    68     -0.865815  9 H  s                 63      0.840675  8 H  s          
    64     -0.800923  8 H  s                 69      0.673472  9 H  s          
    20      0.426352  3 H  s                 15      0.336304  2 H  s          
    55     -0.330948  7 O  px                 8     -0.203852  1 O  py         
    52     -0.203047  7 O  px                21     -0.194385  3 H  s          

 Vector   24  Occ=0.000000D+00  E= 7.918877D-01
              MO Center=  3.4D-02,  2.9D-01, -1.1D+00, r^2= 3.5D+00
   Bfn.  Coefficient  Atom+Function         Bfn.  Coefficient  Atom+Function  
  ----- ------------  ---------------      ----- ------------  ---------------
    39      0.888205  5 H  s                 40     -0.871054  5 H  s          
    44     -0.747258  6 H  s                 45      0.657354  6 H  s          
    21      0.469419  3 H  s                 20     -0.429235  3 H  s          
    15      0.397643  2 H  s                 16     -0.360680  2 H  s          
    32     -0.333948  4 O  py                64      0.178727  8 H  s          

 Vector   25  Occ=0.000000D+00  E= 8.052253D-01
              MO Center=  1.3D+00,  9.7D-01,  4.6D-01, r^2= 3.1D+00
   Bfn.  Coefficient  Atom+Function         Bfn.  Coefficient  Atom+Function  
  ----- ------------  ---------------      ----- ------------  ---------------
    15      0.784048  2 H  s                 20      0.761297  3 H  s          
    16     -0.650248  2 H  s                 64      0.590276  8 H  s          
    21     -0.543080  3 H  s                 63     -0.429516  8 H  s          
    69     -0.329449  9 H  s                 68      0.295953  9 H  s          
     2     -0.263069  1 O  s                  3      0.252375  1 O  s          


 center of mass
 --------------
 x =  -0.04585456 y =  -0.03105125 z =  -0.00451495

 moments of inertia (a.u.)
 ------------------
         502.865804830086        -113.312923789943         -44.948359150765
        -113.312923789943         468.343528761525          71.950998013556
         -44.948359150765          71.950998013556         285.378431343698

  Mulliken analysis of the total density
  --------------------------------------

    Atom       Charge   Shell Charges
 -----------   ------   -------------------------------------------------------
    1 O    8     8.32   2.00  0.83  0.84  2.82  1.81  0.01
    2 H    1     0.81   0.65  0.07  0.08
    3 H    1     0.82   0.67  0.06  0.08
    4 O    8     8.36   2.00  0.83  0.84  2.81  1.86  0.01
    5 H    1     0.83   0.66  0.09  0.09
    6 H    1     0.85   0.68  0.08  0.08
    7 O    8     8.37   2.00  0.83  0.84  2.81  1.87  0.01
    8 H    1     0.83   0.66  0.08  0.09
    9 H    1     0.83   0.67  0.08  0.08

       Multipole analysis of the density wrt the origin
       ------------------------------------------------

     L   x y z        total         open         nuclear
     -   - - -        -----         ----         -------
     0   0 0 0     -0.000000      0.000000     30.000000

     1   1 0 0      1.332798      0.000000     -0.000000
     1   0 1 0      0.983431      0.000000     -0.000000
     1   0 0 1      0.174643      0.000000     -0.000000

     2   2 0 0     -9.645379      0.000000     75.419296
     2   1 1 0      2.513222      0.000000     65.715333
     2   1 0 1     -2.143679      0.000000     22.045090
     2   0 2 0    -12.220452      0.000000     91.077608
     2   0 1 1      4.434845      0.000000    -35.149150
     2   0 0 2    -20.120393      0.000000    185.566105


 Parallel integral file used      54 records with       0 large values

                              NWChem Gradients Module
                              -----------------------



  wavefunction    =   RHF     



                         RHF ENERGY GRADIENTS

    atom               coordinates                        gradient
                 x          y          z           x          y          z
   1 O       1.921407   1.995828   0.586502   -0.038623   0.000564   0.003981
   2 H       3.480128   1.037989   0.234288    0.030322  -0.021363  -0.008516
   3 H       2.459333   3.705697   0.920757    0.004040   0.017890   0.003466
   4 O      -1.286788  -0.059689  -3.400481   -0.030570   0.009817  -0.016825
   5 H      -0.240414   0.992258  -2.307963    0.018574   0.014925   0.015514
   6 H      -0.433228  -1.686440  -3.307365    0.015382  -0.023406   0.001347
   7 O      -0.946961  -2.147647   2.783225    0.019921  -0.028566   0.013892
   8 H      -0.112531  -0.520559   2.570672    0.013552   0.024394  -0.002287
   9 H      -2.654547  -1.836877   2.135642   -0.032599   0.005744  -0.010573

                 ----------------------------------------
                 |  Time  |  1-e(secs)   |  2-e(secs)   |
                 ----------------------------------------
                 |  CPU   |       0.01   |       0.71   |
                 ----------------------------------------
                 |  WALL  |       0.01   |       0.71   |
                 ----------------------------------------

 Task  times  cpu:        1.8s     wall:        1.9s


                                NWChem Input Module
                                -------------------


 Summary of allocated global arrays
-----------------------------------
  No active global arrays



                         GA Statistics for process    0
                         ------------------------------

       create   destroy   get      put      acc     scatter   gather  read&inc
calls:  249      249     8485     3836     3497        0        0      141     
number of processes/call 0.00e+00 0.00e+00 0.00e+00 0.00e+00 0.00e+00
bytes total:             1.41e+07 8.42e+06 2.03e+06 0.00e+00 0.00e+00 1.13e+03
bytes remote:            0.00e+00 0.00e+00 0.00e+00 0.00e+00 0.00e+00 0.00e+00
Max memory consumed for GA by this process: 539136 bytes

MA_summarize_allocated_blocks: starting scan ...
MA_summarize_allocated_blocks: scan completed: 0 heap blocks, 0 stack blocks
MA usage statistics:

	allocation statistics:
					      heap	     stack
					      ----	     -----
	current number of blocks	         0	         0
	maximum number of blocks	        18	        28
	current total bytes		         0	         0
	maximum total bytes		  57703112	  26171432
	maximum total K-bytes		     57704	     26172
	maximum total M-bytes		        58	        27


                                     CITATION
                                     --------
                Please cite the following reference when publishing
                           results obtained with NWChem:

          E. Aprà, E. J. Bylaska, W. A. de Jong, N. Govind, K. Kowalski,
       T. P. Straatsma, M. Valiev, H. J. J. van Dam, Y. Alexeev, J. Anchell,
       V. Anisimov, F. W. Aquino, R. Atta-Fynn, J. Autschbach, N. P. Bauman,
     J. C. Becca, D. E. Bernholdt, K. Bhaskaran-Nair, S. Bogatko, P. Borowski,
        J. Boschen, J. Brabec, A. Bruner, E. Cauët, Y. Chen, G. N. Chuev,
      C. J. Cramer, J. Daily, M. J. O. Deegan, T. H. Dunning Jr., M. Dupuis,
   K. G. Dyall, G. I. Fann, S. A. Fischer, A. Fonari, H. Früchtl, L. Gagliardi,
      J. Garza, N. Gawande, S. Ghosh, K. Glaesemann, A. W. Götz, J. Hammond,
       V. Helms, E. D. Hermes, K. Hirao, S. Hirata, M. Jacquelin, L. Jensen,
   B. G. Johnson, H. Jónsson, R. A. Kendall, M. Klemm, R. Kobayashi, V. Konkov,
      S. Krishnamoorthy, M. Krishnan, Z. Lin, R. D. Lins, R. J. Littlefield,
      A. J. Logsdail, K. Lopata, W. Ma, A. V. Marenich, J. Martin del Campo,
   D. Mejia-Rodriguez, J. E. Moore, J. M. Mullin, T. Nakajima, D. R. Nascimento,
    J. A. Nichols, P. J. Nichols, J. Nieplocha, A. Otero-de-la-Roza, B. Palmer,
    A. Panyala, T. Pirojsirikul, B. Peng, R. Peverati, J. Pittner, L. Pollack,
   R. M. Richard, P. Sadayappan, G. C. Schatz, W. A. Shelton, D. W. Silverstein,
   D. M. A. Smith, T. A. Soares, D. Song, M. Swart, H. L. Taylor, G. S. Thomas,
            V. Tipparaju, D. G. Truhlar, K. Tsemekhman, T. Van Voorhis,
     Á. Vázquez-Mayagoitia, P. Verma, O. Villa, A. Vishnu, K. D. Vogiatzis,
        D. Wang, J. H. Weare, M. J. Williamson, T. L. Windus, K. Woliński,
        A. T. Wong, Q. Wu, C. Yang, Q. Yu, M. Zacharias, Z. Zhang, Y. Zhao,
                                and R. J. Harrison
                        "NWChem: Past, present, and future
                         J. Chem. Phys. 152, 184102 (2020)
                               doi:10.1063/5.0004997

                                      AUTHORS
                                      -------
     E. Apra, E. J. Bylaska, N. Govind, K. Kowalski, M. Valiev, W. A. de Jong,
      T. P. Straatsma, H. J. J. van Dam, D. Wang, T. L. Windus, N. P. Bauman,
       A. Panyala, J. Hammond, J. Autschbach, K. Bhaskaran-Nair, J. Brabec,
    K. Lopata, S. A. Fischer, S. Krishnamoorthy, M. Jacquelin, W. Ma, M. Klemm,
       O. Villa, Y. Chen, V. Anisimov, F. Aquino, S. Hirata, M. T. Hackler,
           Eric Hermes, L. Jensen, J. E. Moore, J. C. Becca, V. Konjkov,
            D. Mejia-Rodriguez, T. Risthaus, M. Malagoli, A. Marenich,
   A. Otero-de-la-Roza, J. Mullin, P. Nichols, R. Peverati, J. Pittner, Y. Zhao,
        P.-D. Fan, A. Fonari, M. J. Williamson, R. J. Harrison, J. R. Rehr,
      M. Dupuis, D. Silverstein, D. M. A. Smith, J. Nieplocha, V. Tipparaju,
      M. Krishnan, B. E. Van Kuiken, A. Vazquez-Mayagoitia, M. Swart, Q. Wu,
   T. Van Voorhis, A. A. Auer, M. Nooijen, L. D. Crosby, E. Brown, G. Cisneros,
     G. I. Fann, H. Fruchtl, J. Garza, K. Hirao, R. A. Kendall, J. A. Nichols,
       K. Tsemekhman, K. Wolinski, J. Anchell, D. E. Bernholdt, P. Borowski,
       T. Clark, D. Clerc, H. Dachsel, M. J. O. Deegan, K. Dyall, D. Elwood,
      E. Glendening, M. Gutowski, A. C. Hess, J. Jaffe, B. G. Johnson, J. Ju,
        R. Kobayashi, R. Kutteh, Z. Lin, R. Littlefield, X. Long, B. Meng,
      T. Nakajima, S. Niu, L. Pollack, M. Rosing, K. Glaesemann, G. Sandrone,
      M. Stave, H. Taylor, G. Thomas, J. H. van Lenthe, A. T. Wong, Z. Zhang.

 Total times  cpu:        1.8s     wall:        1.9s
