 argument  1 = nwchem/input_3_19_1.nw



============================== echo of input deck ==============================
echo
memory 1000 mb
geometry noautosym noautoz
O -0.64071556 -0.48854013 1.6410419
H -0.19915392 0.37247798 1.5285638
H -1.54433112 -0.32408724 1.298356
O 2.81159896 -0.10395953 -0.18689424
H 3.46294039 -0.4517338 0.43482057
H 2.1584952 -0.82915775 -0.30211113
O -2.88801599 -0.0663369 0.05761427
H -2.29024563 0.26724676 -0.65069518
H -3.66545029 0.50362404 0.03495814
end
basis spherical
 * library cc-pvdz
end
task scf gradient
================================================================================


                                         
                                         


             Northwest Computational Chemistry Package (NWChem) 7.0.2
             --------------------------------------------------------


                    Environmental Molecular Sciences Laboratory
                       Pacific Northwest National Laboratory
                                Richland, WA 99352

                              Copyright (c) 1994-2020
                       Pacific Northwest National Laboratory
                            Battelle Memorial Institute

             NWChem is an open-source computational chemistry package
                        distributed under the terms of the
                      Educational Community License (ECL) 2.0
             A copy of the license is included with this distribution
                              in the LICENSE.TXT file

                                  ACKNOWLEDGMENT
                                  --------------

            This software and its documentation were developed at the
            EMSL at Pacific Northwest National Laboratory, a multiprogram
            national laboratory, operated for the U.S. Department of Energy
            by Battelle under Contract Number DE-AC05-76RL01830. Support
            for this work was provided by the Department of Energy Office
            of Biological and Environmental Research, Office of Basic
            Energy Sciences, and the Office of Advanced Scientific Computing.


           Job information
           ---------------

    hostname        = pop-os
    program         = nwchem
    date            = Tue Jul  6 14:10:21 2021

    compiled        = Wed_Jan_06_19:48:08_2021
    source          = /build/nwchem-ksKH2r/nwchem-7.0.2
    nwchem branch   = 7.0.2
    nwchem revision = N/A
    ga revision     = 5.7.1
    use scalapack   = T
    input           = nwchem/input_3_19_1.nw
    prefix          = input_3_19_1.
    data base       = ./input_3_19_1.db
    status          = startup
    nproc           =        1
    time left       =     -1s



           Memory information
           ------------------

    heap     =   32767996 doubles =    250.0 Mbytes
    stack    =   32768001 doubles =    250.0 Mbytes
    global   =   65536000 doubles =    500.0 Mbytes (distinct from heap & stack)
    total    =  131071997 doubles =   1000.0 Mbytes
    verify   = yes
    hardfail = no 


           Directory information
           ---------------------

  0 permanent = .
  0 scratch   = .




                                NWChem Input Module
                                -------------------



 Scaling coordinates for geometry "geometry" by  1.889725989
 (inverse scale =  0.529177249)



                             Geometry "geometry" -> ""
                             -------------------------

 Output coordinates in angstroms (scale by  1.889725989 to convert to a.u.)

  No.       Tag          Charge          X              Y              Z
 ---- ---------------- ---------- -------------- -------------- --------------
    1 O                    8.0000    -0.38022202    -0.29746271     1.15977565
    2 H                    1.0000     0.06133962     0.56355540     1.04729755
    3 H                    1.0000    -1.28383758    -0.13300982     0.81708975
    4 O                    8.0000     3.07209250     0.08711789    -0.66816049
    5 H                    1.0000     3.72343393    -0.26065638    -0.04644568
    6 H                    1.0000     2.41898874    -0.63808033    -0.78337738
    7 O                    8.0000    -2.62752245     0.12474052    -0.42365198
    8 H                    1.0000    -2.02975209     0.45832418    -1.13196143
    9 H                    1.0000    -3.40495675     0.69470146    -0.44630811

      Atomic Mass 
      ----------- 

      O                 15.994910
      H                  1.007825


 Effective nuclear repulsion energy (a.u.)      69.0947649551

            Nuclear Dipole moment (a.u.) 
            ----------------------------
        X                 Y               Z
 ---------------- ---------------- ----------------
     0.0000000000     0.0000000000     0.0000000000


            XYZ format geometry
            -------------------
     9
 geometry
 O                    -0.38022202    -0.29746271     1.15977565
 H                     0.06133962     0.56355540     1.04729755
 H                    -1.28383758    -0.13300982     0.81708975
 O                     3.07209250     0.08711789    -0.66816049
 H                     3.72343393    -0.26065638    -0.04644568
 H                     2.41898874    -0.63808033    -0.78337738
 O                    -2.62752245     0.12474052    -0.42365198
 H                    -2.02975209     0.45832418    -1.13196143
 H                    -3.40495675     0.69470146    -0.44630811

 ==============================================================================
                                internuclear distances
 ------------------------------------------------------------------------------
       center one      |      center two      | atomic units |  angstroms
 ------------------------------------------------------------------------------
    2 H                |   1 O                |     1.84089  |     0.97416
    3 H                |   1 O                |     1.85251  |     0.98031
    5 H                |   4 O                |     1.82407  |     0.96526
    6 H                |   4 O                |     1.85707  |     0.98272
    8 H                |   7 O                |     1.86146  |     0.98504
    9 H                |   7 O                |     1.82216  |     0.96425
 ------------------------------------------------------------------------------
                         number of included internuclear distances:          6
 ==============================================================================



 ==============================================================================
                                 internuclear angles
 ------------------------------------------------------------------------------
        center 1       |       center 2       |       center 3       |  degrees
 ------------------------------------------------------------------------------
    2 H                |   1 O                |   3 H                |   103.25
    5 H                |   4 O                |   6 H                |   104.96
    8 H                |   7 O                |   9 H                |   105.80
 ------------------------------------------------------------------------------
                            number of included internuclear angles:          3
 ==============================================================================





 Summary of "ao basis" -> "" (spherical)
 ------------------------------------------------------------------------------
       Tag                 Description            Shells   Functions and Types
 ---------------- ------------------------------  ------  ---------------------
 *                          cc-pvdz                   on all atoms 


                      Basis "ao basis" -> "ao basis" (spherical)
                      -----
  O (Oxygen)
  ----------
            Exponent  Coefficients 
       -------------- ---------------------------------------------------------
  1 S  1.17200000E+04  0.000710
  1 S  1.75900000E+03  0.005470
  1 S  4.00800000E+02  0.027837
  1 S  1.13700000E+02  0.104800
  1 S  3.70300000E+01  0.283062
  1 S  1.32700000E+01  0.448719
  1 S  5.02500000E+00  0.270952
  1 S  1.01300000E+00  0.015458

  2 S  1.17200000E+04 -0.000160
  2 S  1.75900000E+03 -0.001263
  2 S  4.00800000E+02 -0.006267
  2 S  1.13700000E+02 -0.025716
  2 S  3.70300000E+01 -0.070924
  2 S  1.32700000E+01 -0.165411
  2 S  5.02500000E+00 -0.116955
  2 S  1.01300000E+00  0.557368

  3 S  3.02300000E-01  1.000000

  4 P  1.77000000E+01  0.043018
  4 P  3.85400000E+00  0.228913
  4 P  1.04600000E+00  0.508728

  5 P  2.75300000E-01  1.000000

  6 D  1.18500000E+00  1.000000

  H (Hydrogen)
  ------------
            Exponent  Coefficients 
       -------------- ---------------------------------------------------------
  1 S  1.30100000E+01  0.019685
  1 S  1.96200000E+00  0.137977
  1 S  4.44600000E-01  0.478148

  2 S  1.22000000E-01  1.000000

  3 P  7.27000000E-01  1.000000



 Summary of "ao basis" -> "ao basis" (spherical)
 ------------------------------------------------------------------------------
       Tag                 Description            Shells   Functions and Types
 ---------------- ------------------------------  ------  ---------------------
 O                          cc-pvdz                  6       14   3s2p1d
 H                          cc-pvdz                  3        5   2s1p


                                 NWChem SCF Module
                                 -----------------



  ao basis        = "ao basis"
  functions       =    72
  atoms           =     9
  closed shells   =    15
  open shells     =     0
  charge          =   0.00
  wavefunction    = RHF 
  input vectors   = atomic
  output vectors  = ./input_3_19_1.movecs
  use symmetry    = F
  symmetry adapt  = F


 Summary of "ao basis" -> "ao basis" (spherical)
 ------------------------------------------------------------------------------
       Tag                 Description            Shells   Functions and Types
 ---------------- ------------------------------  ------  ---------------------
 O                          cc-pvdz                  6       14   3s2p1d
 H                          cc-pvdz                  3        5   2s1p



 Forming initial guess at       0.0s


      Superposition of Atomic Density Guess
      -------------------------------------

 Sum of atomic energies:        -227.28668731

      Non-variational initial energy
      ------------------------------

 Total energy =    -227.731462
 1-e energy   =    -448.531449
 2-e energy   =     151.705222
 HOMO         =      -0.461601
 LUMO         =       0.058245


 Starting SCF solution at       0.2s



 ----------------------------------------------
         Quadratically convergent ROHF

 Convergence threshold     :          1.000E-04
 Maximum no. of iterations :           30
 Final Fock-matrix accuracy:          1.000E-07
 ----------------------------------------------


 Integral file          = ./input_3_19_1.aoints.0
 Record size in doubles =  65536        No. of integs per rec  =  43688
 Max. records in memory =    110        Max. records in file   = 400587
 No. of bits per label  =      8        No. of bits per value  =     64


 #quartets = 1.250D+05 #integrals = 1.442D+06 #direct =  0.0% #cached =100.0%


              iter       energy          gnorm     gmax       time
             ----- ------------------- --------- --------- --------
                 1     -227.9871562178  1.39D+00  3.24D-01      0.7
                 2     -228.0784719198  2.99D-01  7.32D-02      0.8
                 3     -228.0854534522  2.54D-02  6.00D-03      0.9
                 4     -228.0855068557  4.46D-04  9.88D-05      1.0
                 5     -228.0855068694  7.86D-06  1.60D-06      1.1


       Final RHF  results 
       ------------------ 

         Total SCF energy =   -228.085506869403
      One-electron energy =   -452.565243004236
      Two-electron energy =    155.384971179763
 Nuclear repulsion energy =     69.094764955070

        Time for solution =      0.8s


             Final eigenvalues
             -----------------

              1      
    1  -20.5897
    2  -20.5483
    3  -20.5214
    4   -1.3656
    5   -1.3232
    6   -1.2985
    7   -0.7304
    8   -0.6864
    9   -0.6678
   10   -0.5950
   11   -0.5586
   12   -0.5494
   13   -0.5130
   14   -0.4871
   15   -0.4631
   16    0.1540
   17    0.1854
   18    0.2281
   19    0.2502
   20    0.2698
   21    0.3699
   22    0.7340
   23    0.7819
   24    0.7980
   25    0.8127

                       ROHF Final Molecular Orbital Analysis
                       -------------------------------------

 Vector    4  Occ=2.000000D+00  E=-1.365593D+00
              MO Center= -2.6D+00,  2.5D-01, -5.0D-01, r^2= 5.8D-01
   Bfn.  Coefficient  Atom+Function         Bfn.  Coefficient  Atom+Function  
  ----- ------------  ---------------      ----- ------------  ---------------
    50      0.443088  7 O  s                 51      0.390370  7 O  s          
    68      0.187033  9 H  s                 63      0.177053  8 H  s          

 Vector    5  Occ=2.000000D+00  E=-1.323157D+00
              MO Center=  3.1D+00, -6.0D-02, -5.9D-01, r^2= 5.1D-01
   Bfn.  Coefficient  Atom+Function         Bfn.  Coefficient  Atom+Function  
  ----- ------------  ---------------      ----- ------------  ---------------
    26      0.444789  4 O  s                 27      0.388695  4 O  s          
    39      0.191065  5 H  s                 44      0.181183  6 H  s          

 Vector    6  Occ=2.000000D+00  E=-1.298478D+00
              MO Center= -4.6D-01, -1.5D-01,  1.1D+00, r^2= 6.0D-01
   Bfn.  Coefficient  Atom+Function         Bfn.  Coefficient  Atom+Function  
  ----- ------------  ---------------      ----- ------------  ---------------
     2      0.440934  1 O  s                  3      0.390803  1 O  s          
    15      0.187301  2 H  s                 20      0.178723  3 H  s          

 Vector    7  Occ=2.000000D+00  E=-7.304465D-01
              MO Center= -2.6D+00,  2.8D-01, -5.1D-01, r^2= 9.6D-01
   Bfn.  Coefficient  Atom+Function         Bfn.  Coefficient  Atom+Function  
  ----- ------------  ---------------      ----- ------------  ---------------
    52      0.440898  7 O  px                68     -0.331430  9 H  s          
    63      0.300306  8 H  s                 55      0.208300  7 O  px         
    54     -0.179267  7 O  pz         

 Vector    8  Occ=2.000000D+00  E=-6.864269D-01
              MO Center=  3.1D+00, -1.2D-01, -5.7D-01, r^2= 8.3D-01
   Bfn.  Coefficient  Atom+Function         Bfn.  Coefficient  Atom+Function  
  ----- ------------  ---------------      ----- ------------  ---------------
    28      0.411836  4 O  px                39      0.327760  5 H  s          
    44     -0.318026  6 H  s                 30      0.238242  4 O  pz         
    31      0.192520  4 O  px         

 Vector    9  Occ=2.000000D+00  E=-6.678491D-01
              MO Center= -8.2D-01, -6.1D-02,  8.1D-01, r^2= 1.7D+00
   Bfn.  Coefficient  Atom+Function         Bfn.  Coefficient  Atom+Function  
  ----- ------------  ---------------      ----- ------------  ---------------
     4      0.393089  1 O  px                20     -0.296661  3 H  s          
    15      0.284037  2 H  s                 54     -0.205334  7 O  pz         
     7      0.185419  1 O  px                 5      0.180550  1 O  py         

 Vector   10  Occ=2.000000D+00  E=-5.950226D-01
              MO Center= -2.2D+00,  5.1D-02, -1.1D-01, r^2= 1.9D+00
   Bfn.  Coefficient  Atom+Function         Bfn.  Coefficient  Atom+Function  
  ----- ------------  ---------------      ----- ------------  ---------------
    53      0.380529  7 O  py                51     -0.308622  7 O  s          
    54     -0.306839  7 O  pz                56      0.251481  7 O  py         
    57     -0.201917  7 O  pz                63      0.188334  8 H  s          
    68      0.181573  9 H  s                  5     -0.179612  1 O  py         
    15     -0.168269  2 H  s          

 Vector   11  Occ=2.000000D+00  E=-5.585818D-01
              MO Center=  3.1D+00,  1.2D-01, -6.9D-01, r^2= 7.1D-01
   Bfn.  Coefficient  Atom+Function         Bfn.  Coefficient  Atom+Function  
  ----- ------------  ---------------      ----- ------------  ---------------
    29      0.493554  4 O  py                27      0.340076  4 O  s          
    32      0.334839  4 O  py                30     -0.230654  4 O  pz         
    44     -0.210013  6 H  s                 39     -0.200352  5 H  s          
    33     -0.156384  4 O  pz         

 Vector   12  Occ=2.000000D+00  E=-5.493548D-01
              MO Center= -1.4D+00, -1.3D-01,  4.4D-01, r^2= 2.7D+00
   Bfn.  Coefficient  Atom+Function         Bfn.  Coefficient  Atom+Function  
  ----- ------------  ---------------      ----- ------------  ---------------
     5      0.347052  1 O  py                53      0.338188  7 O  py         
     3     -0.256056  1 O  s                 56      0.256528  7 O  py         
     8      0.232849  1 O  py                54      0.187729  7 O  pz         
    15      0.171678  2 H  s                 57      0.155945  7 O  pz         

 Vector   13  Occ=2.000000D+00  E=-5.130437D-01
              MO Center= -1.7D+00, -5.4D-02,  2.3D-01, r^2= 2.6D+00
   Bfn.  Coefficient  Atom+Function         Bfn.  Coefficient  Atom+Function  
  ----- ------------  ---------------      ----- ------------  ---------------
    54      0.350513  7 O  pz                 5     -0.271659  1 O  py         
    57      0.265983  7 O  pz                53      0.253830  7 O  py         
    52      0.233676  7 O  px                 4      0.217030  1 O  px         
    56      0.205693  7 O  py                 8     -0.189783  1 O  py         
    55      0.177075  7 O  px                 3      0.166340  1 O  s          

 Vector   14  Occ=2.000000D+00  E=-4.871377D-01
              MO Center=  3.1D+00,  6.6D-02, -6.5D-01, r^2= 6.5D-01
   Bfn.  Coefficient  Atom+Function         Bfn.  Coefficient  Atom+Function  
  ----- ------------  ---------------      ----- ------------  ---------------
    30      0.481354  4 O  pz                33      0.378611  4 O  pz         
    28     -0.337370  4 O  px                31     -0.266486  4 O  px         
    29      0.225929  4 O  py                32      0.178212  4 O  py         

 Vector   15  Occ=2.000000D+00  E=-4.631460D-01
              MO Center= -3.8D-01, -2.7D-01,  1.1D+00, r^2= 6.8D-01
   Bfn.  Coefficient  Atom+Function         Bfn.  Coefficient  Atom+Function  
  ----- ------------  ---------------      ----- ------------  ---------------
     6      0.577271  1 O  pz                 9      0.462797  1 O  pz         
     4     -0.176340  1 O  px                 5      0.161992  1 O  py         

 Vector   16  Occ=0.000000D+00  E= 1.539813D-01
              MO Center= -1.8D+00,  5.6D-01, -5.9D-01, r^2= 5.8D+00
   Bfn.  Coefficient  Atom+Function         Bfn.  Coefficient  Atom+Function  
  ----- ------------  ---------------      ----- ------------  ---------------
    51      0.855421  7 O  s                 64     -0.736226  8 H  s          
    69     -0.668372  9 H  s                 16     -0.443081  2 H  s          
     3      0.306953  1 O  s                 45     -0.271743  6 H  s          
    27      0.246500  4 O  s                 56      0.221713  7 O  py         
    57     -0.182536  7 O  pz         

 Vector   17  Occ=0.000000D+00  E= 1.854081D-01
              MO Center=  1.7D+00, -2.1D-01, -2.7D-01, r^2= 9.3D+00
   Bfn.  Coefficient  Atom+Function         Bfn.  Coefficient  Atom+Function  
  ----- ------------  ---------------      ----- ------------  ---------------
    27      0.834388  4 O  s                 40     -0.725736  5 H  s          
    45     -0.664792  6 H  s                 69      0.522122  9 H  s          
    51     -0.391506  7 O  s                 16     -0.385649  2 H  s          
    32     -0.257804  4 O  py                 3      0.223128  1 O  s          

 Vector   18  Occ=0.000000D+00  E= 2.280791D-01
              MO Center= -1.3D+00,  5.6D-01, -3.3D-01, r^2= 1.1D+01
   Bfn.  Coefficient  Atom+Function         Bfn.  Coefficient  Atom+Function  
  ----- ------------  ---------------      ----- ------------  ---------------
    69      1.230413  9 H  s                 64     -1.002463  8 H  s          
    40      0.653772  5 H  s                 16     -0.548029  2 H  s          
    55      0.476758  7 O  px                27     -0.338003  4 O  s          
     3      0.286336  1 O  s                 52      0.215718  7 O  px         
    57     -0.210597  7 O  pz                 8      0.157612  1 O  py         

 Vector   19  Occ=0.000000D+00  E= 2.501869D-01
              MO Center= -1.1D-01,  4.5D-01,  2.6D-02, r^2= 8.3D+00
   Bfn.  Coefficient  Atom+Function         Bfn.  Coefficient  Atom+Function  
  ----- ------------  ---------------      ----- ------------  ---------------
    64      1.066974  8 H  s                 16     -0.911574  2 H  s          
    40      0.671150  5 H  s                  3      0.660435  1 O  s          
    69     -0.575212  9 H  s                 55     -0.290595  7 O  px         
    57      0.276596  7 O  pz                 8      0.270260  1 O  py         
    27     -0.267992  4 O  s                 21     -0.236777  3 H  s          

 Vector   20  Occ=0.000000D+00  E= 2.697979D-01
              MO Center=  2.3D+00, -4.2D-01, -2.7D-01, r^2= 5.1D+00
   Bfn.  Coefficient  Atom+Function         Bfn.  Coefficient  Atom+Function  
  ----- ------------  ---------------      ----- ------------  ---------------
    45      1.436908  6 H  s                 40     -1.124060  5 H  s          
    16     -0.698994  2 H  s                 31      0.514136  4 O  px         
     3      0.362745  1 O  s                 33      0.263989  4 O  pz         
    32      0.211089  4 O  py                28      0.204830  4 O  px         
     8      0.200834  1 O  py                27     -0.180763  4 O  s          

 Vector   21  Occ=0.000000D+00  E= 3.699187D-01
              MO Center= -1.4D+00, -8.5D-02,  8.9D-01, r^2= 3.4D+00
   Bfn.  Coefficient  Atom+Function         Bfn.  Coefficient  Atom+Function  
  ----- ------------  ---------------      ----- ------------  ---------------
    21      2.043570  3 H  s                 16     -0.967203  2 H  s          
     7      0.629551  1 O  px                 3     -0.594654  1 O  s          
    69     -0.370134  9 H  s                 55     -0.276774  7 O  px         
     4      0.260029  1 O  px                57     -0.243302  7 O  pz         
    64     -0.223362  8 H  s                  9      0.160121  1 O  pz         

 Vector   22  Occ=0.000000D+00  E= 7.340401D-01
              MO Center= -2.0D+00,  2.2D-01, -1.2D-01, r^2= 3.4D+00
   Bfn.  Coefficient  Atom+Function         Bfn.  Coefficient  Atom+Function  
  ----- ------------  ---------------      ----- ------------  ---------------
    63      0.860390  8 H  s                 68     -0.722918  9 H  s          
    21      0.685012  3 H  s                 64     -0.669830  8 H  s          
    20     -0.501741  3 H  s                 69      0.491218  9 H  s          
    55     -0.436693  7 O  px                15      0.409174  2 H  s          
    16     -0.290065  2 H  s                  3     -0.222662  1 O  s          

 Vector   23  Occ=0.000000D+00  E= 7.818848D-01
              MO Center=  1.9D+00, -1.6D-01, -4.2D-01, r^2= 5.8D+00
   Bfn.  Coefficient  Atom+Function         Bfn.  Coefficient  Atom+Function  
  ----- ------------  ---------------      ----- ------------  ---------------
    44      0.951448  6 H  s                 39     -0.700086  5 H  s          
    45     -0.683357  6 H  s                 40      0.528037  5 H  s          
    68      0.400395  9 H  s                 15      0.368386  2 H  s          
    31      0.334045  4 O  px                69     -0.307024  9 H  s          
    16     -0.193773  2 H  s                 28      0.188985  4 O  px         

 Vector   24  Occ=0.000000D+00  E= 7.979864D-01
              MO Center= -3.7D-01,  9.6D-02,  2.9D-01, r^2= 7.8D+00
   Bfn.  Coefficient  Atom+Function         Bfn.  Coefficient  Atom+Function  
  ----- ------------  ---------------      ----- ------------  ---------------
    20      0.706424  3 H  s                 21     -0.646464  3 H  s          
    15     -0.613132  2 H  s                 68     -0.609653  9 H  s          
    39     -0.566452  5 H  s                 16      0.533797  2 H  s          
    69      0.508984  9 H  s                 40      0.409398  5 H  s          
    45     -0.276115  6 H  s                 44      0.259650  6 H  s          

 Vector   25  Occ=0.000000D+00  E= 8.126862D-01
              MO Center= -2.3D+00,  4.7D-01, -7.4D-01, r^2= 2.3D+00
   Bfn.  Coefficient  Atom+Function         Bfn.  Coefficient  Atom+Function  
  ----- ------------  ---------------      ----- ------------  ---------------
    63      0.903795  8 H  s                 64     -0.687566  8 H  s          
    68      0.673016  9 H  s                 20      0.409061  3 H  s          
    69     -0.382621  9 H  s                 51      0.322965  7 O  s          
    50     -0.286100  7 O  s                 70     -0.215309  9 H  px         
    53     -0.211093  7 O  py                65      0.210698  8 H  px         


 center of mass
 --------------
 x =   0.01785193 y =  -0.02374902 z =   0.01885487

 moments of inertia (a.u.)
 ------------------
         138.212552117248          17.121453263193          76.117230364395
          17.121453263193        1201.567639765174          25.432059801467
          76.117230364395          25.432059801467        1086.865872791340

  Mulliken analysis of the total density
  --------------------------------------

    Atom       Charge   Shell Charges
 -----------   ------   -------------------------------------------------------
    1 O    8     8.37   2.00  0.83  0.84  2.81  1.87  0.01
    2 H    1     0.85   0.68  0.09  0.08
    3 H    1     0.81   0.64  0.08  0.09
    4 O    8     8.34   2.00  0.83  0.84  2.81  1.84  0.01
    5 H    1     0.84   0.68  0.07  0.08
    6 H    1     0.83   0.67  0.08  0.08
    7 O    8     8.32   2.00  0.83  0.84  2.82  1.81  0.01
    8 H    1     0.82   0.66  0.08  0.08
    9 H    1     0.83   0.68  0.07  0.08

       Multipole analysis of the density wrt the origin
       ------------------------------------------------

     L   x y z        total         open         nuclear
     -   - - -        -----         ----         -------
     0   0 0 0     -0.000000      0.000000     30.000000

     1   1 0 0     -0.654119      0.000000      0.000000
     1   0 1 0      0.601629      0.000000      0.000000
     1   0 0 1     -0.583266      0.000000      0.000000

     2   2 0 0     -7.777858      0.000000    603.405076
     2   1 1 0     -7.448246      0.000000    -18.500281
     2   1 0 1      4.953808      0.000000    -36.707581
     2   0 2 0    -13.263707      0.000000      8.556684
     2   0 1 1      1.187120      0.000000    -12.440607
     2   0 0 2    -15.528814      0.000000     70.095796


 Parallel integral file used      34 records with       0 large values

                              NWChem Gradients Module
                              -----------------------



  wavefunction    =   RHF     



                         RHF ENERGY GRADIENTS

    atom               coordinates                        gradient
                 x          y          z           x          y          z
   1 O      -0.718515  -0.562123   2.191658    0.011080  -0.032264   0.013822
   2 H       0.115915   1.064965   1.979105    0.011498   0.026045  -0.004389
   3 H      -2.426101  -0.251352   1.544076   -0.028411   0.008294  -0.012550
   4 O       5.805413   0.164629  -1.262640    0.011325   0.031216  -0.006706
   5 H       7.036270  -0.492569  -0.087770    0.015661  -0.005319   0.012983
   6 H       4.571226  -1.205797  -1.480369   -0.025128  -0.026209  -0.007379
   7 O      -4.965297   0.235725  -0.800586   -0.005916  -0.024420   0.028913
   8 H      -3.835675   0.866107  -2.139097    0.026011   0.012329  -0.025647
   9 H      -6.434435   1.312795  -0.843400   -0.016118   0.010327   0.000952

                 ----------------------------------------
                 |  Time  |  1-e(secs)   |  2-e(secs)   |
                 ----------------------------------------
                 |  CPU   |       0.01   |       0.70   |
                 ----------------------------------------
                 |  WALL  |       0.01   |       0.70   |
                 ----------------------------------------

 Task  times  cpu:        1.8s     wall:        1.9s


                                NWChem Input Module
                                -------------------


 Summary of allocated global arrays
-----------------------------------
  No active global arrays



                         GA Statistics for process    0
                         ------------------------------

       create   destroy   get      put      acc     scatter   gather  read&inc
calls:  249      249     8485     3836     3497        0        0      165     
number of processes/call 0.00e+00 0.00e+00 0.00e+00 0.00e+00 0.00e+00
bytes total:             1.41e+07 8.42e+06 2.03e+06 0.00e+00 0.00e+00 1.32e+03
bytes remote:            0.00e+00 0.00e+00 0.00e+00 0.00e+00 0.00e+00 0.00e+00
Max memory consumed for GA by this process: 539136 bytes

MA_summarize_allocated_blocks: starting scan ...
MA_summarize_allocated_blocks: scan completed: 0 heap blocks, 0 stack blocks
MA usage statistics:

	allocation statistics:
					      heap	     stack
					      ----	     -----
	current number of blocks	         0	         0
	maximum number of blocks	        18	        28
	current total bytes		         0	         0
	maximum total bytes		  57703112	  26171432
	maximum total K-bytes		     57704	     26172
	maximum total M-bytes		        58	        27


                                     CITATION
                                     --------
                Please cite the following reference when publishing
                           results obtained with NWChem:

          E. Aprà, E. J. Bylaska, W. A. de Jong, N. Govind, K. Kowalski,
       T. P. Straatsma, M. Valiev, H. J. J. van Dam, Y. Alexeev, J. Anchell,
       V. Anisimov, F. W. Aquino, R. Atta-Fynn, J. Autschbach, N. P. Bauman,
     J. C. Becca, D. E. Bernholdt, K. Bhaskaran-Nair, S. Bogatko, P. Borowski,
        J. Boschen, J. Brabec, A. Bruner, E. Cauët, Y. Chen, G. N. Chuev,
      C. J. Cramer, J. Daily, M. J. O. Deegan, T. H. Dunning Jr., M. Dupuis,
   K. G. Dyall, G. I. Fann, S. A. Fischer, A. Fonari, H. Früchtl, L. Gagliardi,
      J. Garza, N. Gawande, S. Ghosh, K. Glaesemann, A. W. Götz, J. Hammond,
       V. Helms, E. D. Hermes, K. Hirao, S. Hirata, M. Jacquelin, L. Jensen,
   B. G. Johnson, H. Jónsson, R. A. Kendall, M. Klemm, R. Kobayashi, V. Konkov,
      S. Krishnamoorthy, M. Krishnan, Z. Lin, R. D. Lins, R. J. Littlefield,
      A. J. Logsdail, K. Lopata, W. Ma, A. V. Marenich, J. Martin del Campo,
   D. Mejia-Rodriguez, J. E. Moore, J. M. Mullin, T. Nakajima, D. R. Nascimento,
    J. A. Nichols, P. J. Nichols, J. Nieplocha, A. Otero-de-la-Roza, B. Palmer,
    A. Panyala, T. Pirojsirikul, B. Peng, R. Peverati, J. Pittner, L. Pollack,
   R. M. Richard, P. Sadayappan, G. C. Schatz, W. A. Shelton, D. W. Silverstein,
   D. M. A. Smith, T. A. Soares, D. Song, M. Swart, H. L. Taylor, G. S. Thomas,
            V. Tipparaju, D. G. Truhlar, K. Tsemekhman, T. Van Voorhis,
     Á. Vázquez-Mayagoitia, P. Verma, O. Villa, A. Vishnu, K. D. Vogiatzis,
        D. Wang, J. H. Weare, M. J. Williamson, T. L. Windus, K. Woliński,
        A. T. Wong, Q. Wu, C. Yang, Q. Yu, M. Zacharias, Z. Zhang, Y. Zhao,
                                and R. J. Harrison
                        "NWChem: Past, present, and future
                         J. Chem. Phys. 152, 184102 (2020)
                               doi:10.1063/5.0004997

                                      AUTHORS
                                      -------
     E. Apra, E. J. Bylaska, N. Govind, K. Kowalski, M. Valiev, W. A. de Jong,
      T. P. Straatsma, H. J. J. van Dam, D. Wang, T. L. Windus, N. P. Bauman,
       A. Panyala, J. Hammond, J. Autschbach, K. Bhaskaran-Nair, J. Brabec,
    K. Lopata, S. A. Fischer, S. Krishnamoorthy, M. Jacquelin, W. Ma, M. Klemm,
       O. Villa, Y. Chen, V. Anisimov, F. Aquino, S. Hirata, M. T. Hackler,
           Eric Hermes, L. Jensen, J. E. Moore, J. C. Becca, V. Konjkov,
            D. Mejia-Rodriguez, T. Risthaus, M. Malagoli, A. Marenich,
   A. Otero-de-la-Roza, J. Mullin, P. Nichols, R. Peverati, J. Pittner, Y. Zhao,
        P.-D. Fan, A. Fonari, M. J. Williamson, R. J. Harrison, J. R. Rehr,
      M. Dupuis, D. Silverstein, D. M. A. Smith, J. Nieplocha, V. Tipparaju,
      M. Krishnan, B. E. Van Kuiken, A. Vazquez-Mayagoitia, M. Swart, Q. Wu,
   T. Van Voorhis, A. A. Auer, M. Nooijen, L. D. Crosby, E. Brown, G. Cisneros,
     G. I. Fann, H. Fruchtl, J. Garza, K. Hirao, R. A. Kendall, J. A. Nichols,
       K. Tsemekhman, K. Wolinski, J. Anchell, D. E. Bernholdt, P. Borowski,
       T. Clark, D. Clerc, H. Dachsel, M. J. O. Deegan, K. Dyall, D. Elwood,
      E. Glendening, M. Gutowski, A. C. Hess, J. Jaffe, B. G. Johnson, J. Ju,
        R. Kobayashi, R. Kutteh, Z. Lin, R. Littlefield, X. Long, B. Meng,
      T. Nakajima, S. Niu, L. Pollack, M. Rosing, K. Glaesemann, G. Sandrone,
      M. Stave, H. Taylor, G. Thomas, J. H. van Lenthe, A. T. Wong, Z. Zhang.

 Total times  cpu:        1.8s     wall:        1.9s
